<UPF version="2.0.1">
  <PP_INFO><![CDATA[
Generated using "atomic" code by A. Dal Corso  v.6.6
Author: ADC
Generation date: 20May2021
Pseudopotential type: PAW
Element: Co
Functional:  SLA  PW   PBX  PBC
    Suggested minimum cutoff for wavefunctions:  45. Ry
    Suggested minimum cutoff for charge density: 238. Ry
    The Pseudo was generated with a Scalar-Relativistic Calculation
    Local Potential by smoothing AE potential with Bessel fncs, cutoff radius:   1.9000
    Valence configuration:
    nl pn  l   occ       Rcut    Rcut US       E pseu
    4S  1  0  2.00      1.300      2.200    -0.402018
    4P  2  1  0.00      1.300      2.200    -0.093832
    3D  3  2  7.00      1.300      1.800    -0.602985
    Generation configuration:
    4S  1  0  2.00      1.300      2.200    -0.402016
    4S  1  0  0.00      1.300      2.200     6.300000
    4P  2  1  0.00      1.300      2.200    -0.093832
    4P  2  1  0.00      1.300      2.200     6.500000
    3D  3  2  7.00      1.300      1.800    -0.602981
    3D  3  2  0.00      1.300      1.800    -0.200000
    Pseudization used: troullier-martins
]]>
    <PP_INPUTFILE><![CDATA[
 &input
   title='Co',
   zed=27.,
   rel=1,
   config='[Ar] 4s2 4p0 3d7',
   iswitch=3,
   dft='PBE'
 /
 &inputp
   lpaw=.true.,
   pseudotype=3,
   file_pseudopw='Co.pbe-n-kjpaw_psl.1.0.0.UPF',
   author='ADC',
   lloc=-1,
   rcloc=1.9,
   which_augfun='PSQ',
   rmatch_augfun_nc=.true.,
   nlcc=.true.,
   new_core_ps=.true.,
   rcore=1.2,
   tm=.true.
 /
6
4S  1 0 2.00  0.00  1.30  2.20  0.0
4S  1 0 0.00  6.30  1.30  2.20  0.0
4P  2 1 0.00  0.00  1.30  2.20  0.0
4P  2 1 0.00  6.50  1.30  2.20  0.0
3D  3 2 7.00  0.00  1.30  1.80  0.0
3D  3 2 0.00 -0.20  1.30  1.80  0.0
]]></PP_INPUTFILE>
  </PP_INFO>
  <!--
 END OF HUMAN READABLE SECTION 
-->
  <PP_HEADER generated="Generated using &quot;atomic&quot; code by A. Dal Corso  v.6.6" author="ADC" date="20May2021" comment="" element="Co" pseudo_type="PAW" relativistic="scalar" is_ultrasoft="true" is_paw="true" is_coulomb="false" has_so="false" has_wfc="true" has_gipaw="false" paw_as_gipaw="false" core_correction="true" functional=" SLA  PW   PBX  PBC" z_valence="9.000000000000e0" total_psenergy="-1.614511757021e2" wfc_cutoff="4.512820193021e1" rho_cutoff="2.375554438804e2" l_max="2" l_max_rho="4" l_local="-1" mesh_size="1193" number_of_wfc="3" number_of_proj="6"/>
  <PP_MESH dx="1.250000000000e-2" mesh="1193" xmin="-7.000000000000e0" rmax="1.000000000000e2" zmesh="2.700000000000e1">
    <PP_R>
      3.377340613164876e-5 3.419822328403787e-5 3.462838397839193e-5 3.506395542819459e-5
      3.550500569237110e-5 3.595160368592254e-5 3.640381919069402e-5 3.686172286627820e-5
      3.732538626105594e-5 3.779488182337610e-5 3.827028291287544e-5 3.875166381194142e-5
      3.923909973731890e-5 3.973266685186285e-5 4.023244227643918e-5 4.073850410197476e-5
      4.125093140165937e-5 4.176980424330120e-5 4.229520370183732e-5 4.282721187200214e-5
      4.336591188115460e-5 4.391138790226715e-5 4.446372516707781e-5 4.502300997940795e-5
      4.558932972864744e-5 4.616277290340923e-5 4.674342910535609e-5 4.733138906320090e-5
      4.792674464688326e-5 4.852958888192445e-5 4.914001596396266e-5 4.975812127347136e-5
      5.038400139066273e-5 5.101775411057840e-5 5.165947845837032e-5 5.230927470477340e-5
      5.296724438177312e-5 5.363349029847021e-5 5.430811655714455e-5 5.499122856952172e-5
      5.568293307324341e-5 5.638333814854562e-5 5.709255323514631e-5 5.781068914934564e-5
      5.853785810134137e-5 5.927417371276164e-5 6.001975103441877e-5 6.077470656428615e-5
      6.153915826570127e-5 6.231322558579782e-5 6.309702947416942e-5 6.389069240176823e-5
      6.469433838004147e-5 6.550809298030815e-5 6.633208335338036e-5 6.716643824943019e-5
      6.801128803810768e-5 6.886676472891116e-5 6.973300199181397e-5 7.061013517815098e-5
      7.149830134176700e-5 7.239763926043210e-5 7.330828945752579e-5 7.423039422399404e-5
      7.516409764058274e-5 7.610954560035033e-5 7.706688583146404e-5 7.803626792028274e-5
      7.901784333472993e-5 8.001176544796127e-5 8.101818956232908e-5 8.203727293364876e-5
      8.306917479577049e-5 8.411405638545951e-5 8.517208096759022e-5 8.624341386065606e-5
      8.732822246260120e-5 8.842667627697681e-5 8.953894693942605e-5 9.066520824450308e-5
      9.180563617282809e-5 9.296040891858512e-5 9.412970691736511e-5 9.531371287435926e-5
      9.651261179290735e-5 9.772659100340451e-5 9.895584019257225e-5 1.002005514330973e-4
      1.014609192136433e-4 1.027371404692403e-4 1.040294146120560e-4 1.053379435625543e-4
      1.066629317810460e-4 1.080045862996358e-4 1.093631167545721e-4 1.107387354190022e-4
      1.121316572361413e-4 1.135420998528571e-4 1.149702836536781e-4 1.164164317952289e-4
      1.178807702410988e-4 1.193635277971491e-4 1.208649361472648e-4 1.223852298895549e-4
      1.239246465730101e-4 1.254834267346190e-4 1.270618139369531e-4 1.286600548062242e-4
      1.302783990708196e-4 1.319170996003233e-4 1.335764124450270e-4 1.352565968759387e-4
      1.369579154252938e-4 1.386806339275770e-4 1.404250215610596e-4 1.421913508898579e-4
      1.439798979065233e-4 1.457909420751661e-4 1.476247663751219e-4 1.494816573451688e-4
      1.513619051282987e-4 1.532658035170532e-4 1.551936499994289e-4 1.571457458053608e-4
      1.591223959537904e-4 1.611239093003248e-4 1.631505985854965e-4 1.652027804836297e-4
      1.672807756523209e-4 1.693849087825434e-4 1.715155086493795e-4 1.736729081633930e-4
      1.758574444226473e-4 1.780694587653772e-4 1.803092968233246e-4 1.825773085757426e-4
      1.848738484040821e-4 1.871992751473635e-4 1.895539521582463e-4 1.919382473598046e-4
      1.943525333030142e-4 1.967971872249658e-4 1.992725911078082e-4 2.017791317384343e-4
      2.043172007689175e-4 2.068871947777074e-4 2.094895153315965e-4 2.121245690484661e-4
      2.147927676608201e-4 2.174945280801205e-4 2.202302724619294e-4 2.230004282718725e-4
      2.258054283524311e-4 2.286457109905741e-4 2.315217199862430e-4 2.344339047216943e-4
      2.373827202317179e-4 2.403686272747366e-4 2.433920924048005e-4 2.464535880444879e-4
      2.495535925587211e-4 2.526925903295121e-4 2.558710718316493e-4 2.590895337093337e-4
      2.623484788537824e-4 2.656484164818037e-4 2.689898622153663e-4 2.723733381621643e-4
      2.757993729971977e-4 2.792685020453805e-4 2.827812673651838e-4 2.863382178333359e-4
      2.899399092305842e-4 2.935869043285368e-4 2.972797729775985e-4 3.010190921960078e-4
      3.048054462600012e-4 3.086394267951040e-4 3.125216328685752e-4 3.164526710830128e-4
      3.204331556711346e-4 3.244637085917565e-4 3.285449596269725e-4 3.326775464805598e-4
      3.368621148776231e-4 3.410993186654867e-4 3.453898199158639e-4 3.497342890283042e-4
      3.541334048349446e-4 3.585878547065812e-4 3.630983346600677e-4 3.676655494670745e-4
      3.722902127642069e-4 3.769730471645136e-4 3.817147843703981e-4 3.865161652879446e-4
      3.913779401426909e-4 3.963008685968492e-4 4.012857198680057e-4 4.063332728493144e-4
      4.114443162311964e-4 4.166196486245802e-4 4.218600786856807e-4 4.271664252423563e-4
      4.325395174220538e-4 4.379801947813561e-4 4.434893074371712e-4 4.490677161995593e-4
      4.547162927062384e-4 4.604359195587812e-4 4.662274904605185e-4 4.720919103561878e-4
      4.780300955733286e-4 4.840429739654622e-4 4.901314850570718e-4 4.962965801904011e-4
      5.025392226741086e-4 5.088603879337830e-4 5.152610636643563e-4 5.217422499844346e-4
      5.283049595925649e-4 5.349502179254770e-4 5.416790633183045e-4 5.484925471668296e-4
      5.553917340917673e-4 5.623777021051090e-4 5.694515427785715e-4 5.766143614141516e-4
      5.838672772168328e-4 5.912114234694675e-4 5.986479477098472e-4 6.061780119100158e-4
      6.138027926578243e-4 6.215234813407764e-4 6.293412843321883e-4 6.372574231796808e-4
      6.452731347960561e-4 6.533896716525616e-4 6.616083019745939e-4 6.699303099398634e-4
      6.783569958790437e-4 6.868896764789588e-4 6.955296849883115e-4 7.042783714260094e-4
      7.131371027921086e-4 7.221072632814073e-4 7.311902544997326e-4 7.403874956829419e-4
      7.497004239186812e-4 7.591304943709355e-4 7.686791805073979e-4 7.783479743297050e-4
      7.881383866065621e-4 7.980519471098063e-4 8.080902048534359e-4 8.182547283356460e-4
      8.285471057839111e-4 8.389689454031471e-4 8.495218756269974e-4 8.602075453722804e-4
      8.710276242966335e-4 8.819838030594029e-4 8.930777935858101e-4 9.043113293344458e-4
      9.156861655681260e-4 9.272040796281535e-4 9.388668712120351e-4 9.506763626546828e-4
      9.626343992131609e-4 9.747428493550117e-4 9.870036050502030e-4 9.994185820667587e-4
      1.011989720270095e-3 1.024718983926133e-3 1.037608362008216e-3 1.050659868507893e-3
      1.063875542749609e-3 1.077257449709351e-3 1.090807680337307e-3 1.104528351884582e-3
      1.118421608234019e-3 1.132489620235189e-3 1.146734586043589e-3 1.161158731464107e-3
      1.175764310298813e-3 1.190553604699114e-3 1.205528925522349e-3 1.220692612692865e-3
      1.236047035567633e-3 1.251594593306465e-3 1.267337715246890e-3 1.283278861283742e-3
      1.299420522253520e-3 1.315765220323591e-3 1.332315509386284e-3 1.349073975457935e-3
      1.366043237082963e-3 1.383225945743023e-3 1.400624786271299e-3 1.418242477272025e-3
      1.436081771545259e-3 1.454145456517030e-3 1.472436354674864e-3 1.490957324008809e-3
      1.509711258458009e-3 1.528701088362872e-3 1.547929780922960e-3 1.567400340660604e-3
      1.587115809890377e-3 1.607079269194458e-3 1.627293837903979e-3 1.647762674586427e-3
      1.668488977539179e-3 1.689475985289237e-3 1.710726977099264e-3 1.732245273479962e-3
      1.754034236708923e-3 1.776097271355981e-3 1.798437824815184e-3 1.821059387843466e-3
      1.843965495106072e-3 1.867159725728866e-3 1.890645703857571e-3 1.914427099224052e-3
      1.938507627719718e-3 1.962891051976141e-3 1.987581181952968e-3 2.012581875533241e-3
      2.037897039126195e-3 2.063530628277644e-3 2.089486648288050e-3 2.115769154838344e-3
      2.142382254623648e-3 2.169330105994946e-3 2.196616919608842e-3 2.224246959085479e-3
      2.252224541674740e-3 2.280554038930824e-3 2.309239877395314e-3 2.338286539288829e-3
      2.367698563211392e-3 2.397480544851576e-3 2.427637137704606e-3 2.458173053799468e-3
      2.489093064435177e-3 2.520402000926303e-3 2.552104755357874e-3 2.584206281349765e-3
      2.616711594830727e-3 2.649625774822119e-3 2.682953964231535e-3 2.716701370656375e-3
      2.750873267197552e-3 2.785474993283423e-3 2.820511955504086e-3 2.855989628456174e-3
      2.891913555598266e-3 2.928289350117063e-3 2.965122695804467e-3 3.002419347945675e-3
      3.040185134218474e-3 3.078425955603799e-3 3.117147787307792e-3 3.156356679695440e-3
      3.196058759235945e-3 3.236260229460014e-3 3.276967371929160e-3 3.318186547217211e-3
      3.359924195904169e-3 3.402186839582551e-3 3.444981081876425e-3 3.488313609473210e-3
      3.532191193168505e-3 3.576620688924032e-3 3.621609038938891e-3 3.667163272734308e-3
      3.713290508251990e-3 3.759997952966337e-3 3.807292905010609e-3 3.855182754317283e-3
      3.903674983772753e-3 3.952777170386526e-3 4.002496986475160e-3 4.052842200861074e-3
      4.103820680086443e-3 4.155440389642361e-3 4.207709395213472e-3 4.260635863938239e-3
      4.314228065685075e-3 4.368494374344540e-3 4.423443269137763e-3 4.479083335941359e-3
      4.535423268628962e-3 4.592471870429677e-3 4.650238055303603e-3 4.708730849334652e-3
      4.767959392140898e-3 4.827932938302655e-3 4.888660858808529e-3 4.950152642519648e-3
      5.012417897652322e-3 5.075466353279351e-3 5.139307860850196e-3 5.203952395730304e-3
      5.269410058759766e-3 5.335691077831602e-3 5.402805809489903e-3 5.470764740548032e-3
      5.539578489727227e-3 5.609257809315803e-3 5.679813586849203e-3 5.751256846811223e-3
      5.823598752356580e-3 5.896850607055199e-3 5.971023856658403e-3 6.046130090887348e-3
      6.122181045243947e-3 6.199188602844540e-3 6.277164796276674e-3 6.356121809479216e-3
      6.436071979646117e-3 6.517027799154129e-3 6.599001917514759e-3 6.682007143350772e-3
      6.766056446397584e-3 6.851162959529788e-3 6.937339980813224e-3 7.024600975582790e-3
      7.112959578546452e-3 7.202429595915691e-3 7.293025007562743e-3 7.384759969205007e-3
      7.477648814616868e-3 7.571706057869410e-3 7.666946395598250e-3 7.763384709299920e-3
      7.861036067657152e-3 7.959915728893359e-3 8.060039143156777e-3 8.161421954934591e-3
      8.264080005497402e-3 8.368029335374477e-3 8.473286186860093e-3 8.579867006551442e-3
      8.687788447918440e-3 8.797067373905856e-3 8.907720859568229e-3 9.019766194737809e-3
      9.133220886726169e-3 9.248102663059768e-3 9.364429474249869e-3 9.482219496597411e-3
      9.601491135033024e-3 9.722263025992868e-3 9.844554040330621e-3 9.968383286266070e-3
      1.009377011237084e-2 1.022073411059160e-2 1.034929511931139e-2 1.047947322644937e-2
      1.061128877259963e-2 1.074476235420946e-2 1.087991482679752e-2 1.101676730821262e-2
      1.115534118193342e-2 1.129565810040960e-2 1.143773998844518e-2 1.158160904662422e-2
      1.172728775477976e-2 1.187479887550633e-2 1.202416545771666e-2 1.217541084024312e-2
      1.232855865548443e-2 1.248363283309831e-2 1.264065760374051e-2 1.279965750285091e-2
      1.296065737448724e-2 1.312368237520699e-2 1.328875797799821e-2 1.345590997625968e-2
      1.362516448783120e-2 1.379654795907456e-2 1.397008716900582e-2 1.414580923347960e-2
      1.432374160942598e-2 1.450391209914070e-2 1.468634885462937e-2 1.487108038200618e-2
      1.505813554594812e-2 1.524754357420514e-2 1.543933406216698e-2 1.563353697748761e-2
      1.583018266476766e-2 1.602930185029583e-2 1.623092564684998e-2 1.643508555855852e-2
      1.664181348582303e-2 1.685114173030273e-2 1.706310299996171e-2 1.727773041417958e-2
      1.749505750892647e-2 1.771511824200312e-2 1.793794699834676e-2 1.816357859540394e-2
      1.839204828857073e-2 1.862339177670151e-2 1.885764520768701e-2 1.909484518410238e-2
      1.933502876892653e-2 1.957823349133325e-2 1.982449735255520e-2 2.007385883182175e-2
      2.032635689237136e-2 2.058203098753969e-2 2.084092106692430e-2 2.110306758262678e-2
      2.136851149557359e-2 2.163729428191615e-2 2.190945793951169e-2 2.218504499448540e-2
      2.246409850787531e-2 2.274666208236066e-2 2.303277986907483e-2 2.332249657450409e-2
      2.361585746747310e-2 2.391290838621822e-2 2.421369574554991e-2 2.451826654410497e-2
      2.482666837169036e-2 2.513894941671906e-2 2.545515847373971e-2 2.577534495106082e-2
      2.609955887847088e-2 2.642785091505566e-2 2.676027235711380e-2 2.709687514617192e-2
      2.743771187710067e-2 2.778283580633267e-2 2.813230086018403e-2 2.848616164328041e-2
      2.884447344708907e-2 2.920729225855840e-2 2.957467476886582e-2 2.994667838227603e-2
      3.032336122511046e-2 3.070478215482964e-2 3.109100076922990e-2 3.148207741575550e-2
      3.187807320092809e-2 3.227904999989476e-2 3.268507046609614e-2 3.309619804105614e-2
      3.351249696429481e-2 3.393403228336585e-2 3.436086986402050e-2 3.479307640049911e-2
      3.523071942595238e-2 3.567386732299341e-2 3.612258933438271e-2 3.657695557384748e-2
      3.703703703703703e-2 3.750290561261610e-2 3.797463409349739e-2 3.845229618821576e-2
      3.893596653244536e-2 3.942572070066146e-2 3.992163521794932e-2 4.042378757196118e-2
      4.093225622502400e-2 4.144712062639932e-2 4.196846122469728e-2 4.249635948044713e-2
      4.303089787882532e-2 4.357215994254412e-2 4.412023024490218e-2 4.467519442299928e-2
      4.523713919111741e-2 4.580615235426983e-2 4.638232282192093e-2 4.696574062187853e-2
      4.755649691436079e-2 4.815468400624042e-2 4.876039536546748e-2 4.937372563567420e-2
      4.999477065096311e-2 5.062362745088135e-2 5.126039429558339e-2 5.190517068118421e-2
      5.255805735530585e-2 5.321915633281947e-2 5.388857091178524e-2 5.456640568959318e-2
      5.525276657930632e-2 5.594776082621013e-2 5.665149702456963e-2 5.736408513459752e-2
      5.808563649963590e-2 5.881626386355348e-2 5.955608138836236e-2 6.030520467205597e-2
      6.106375076667141e-2 6.183183819657937e-2 6.260958697700341e-2 6.339711863277280e-2
      6.419455621731097e-2 6.500202433186290e-2 6.581964914496440e-2 6.664755841215591e-2
      6.748588149594481e-2 6.833474938601857e-2 6.919429471971194e-2 7.006465180273223e-2
      7.094595663014431e-2 7.183834690762056e-2 7.274196207295736e-2 7.365694331786266e-2
      7.458343361001766e-2 7.552157771541540e-2 7.647152222098103e-2 7.743341555747618e-2
      7.840740802269165e-2 7.939365180493184e-2 8.039230100679418e-2 8.140351166924827e-2
      8.242744179601738e-2 8.346425137826698e-2 8.451410241960387e-2 8.557715896138907e-2
      8.665358710837008e-2 8.774355505463488e-2 8.884723310989251e-2 8.996479372608476e-2
      9.109641152433150e-2 9.224226332221601e-2 9.340252816141295e-2 9.457738733566396e-2
      9.576702441910545e-2 9.697162529495191e-2 9.819137818454104e-2 9.942647367674342e-2
      1.006771047577424e-1 1.019434668411892e-1 1.032257577987352e-1 1.045241779909518e-1
      1.058389302986358e-1 1.071702201545097e-1 1.085182555753224e-1 1.098832471943507e-1
      1.112654082943123e-1 1.126649548406913e-1 1.140821055154826e-1 1.155170817513628e-1
      1.169701077662877e-1 1.184414105985287e-1 1.199312201421468e-1 1.214397691829138e-1
      1.229672934346871e-1 1.245140315762382e-1 1.260802252885488e-1 1.276661192925732e-1
      1.292719613874756e-1 1.308980024893509e-1 1.325444966704289e-1 1.342117011987756e-1
      1.358998765784906e-1 1.376092865904113e-1 1.393401983333302e-1 1.410928822657282e-1
      1.428676122480360e-1 1.446646655854243e-1 1.464843230711325e-1 1.483268690303455e-1
      1.501925913646176e-1 1.520817815968597e-1 1.539947349168893e-1 1.559317502275541e-1
      1.578931301914379e-1 1.598791812781498e-1 1.618902138122132e-1 1.639265420215532e-1
      1.659884840865950e-1 1.680763621899818e-1 1.701905025669145e-1 1.723312355561285e-1
      1.744988956515090e-1 1.766938215543556e-1 1.789163562263068e-1 1.811668469429262e-1
      1.834456453479671e-1 1.857531075083172e-1 1.880895939696327e-1 1.904554698126775e-1
      1.928511047103648e-1 1.952768729855219e-1 1.977331536693770e-1 2.002203305607840e-1
      2.027387922861928e-1 2.052889323603713e-1 2.078711492478946e-1 2.104858464254055e-1
      2.131334324446567e-1 2.158143209963511e-1 2.185289309747784e-1 2.212776865432712e-1
      2.240610172004796e-1 2.268793578474810e-1 2.297331488557360e-1 2.326228361358950e-1
      2.355488712074752e-1 2.385117112694098e-1 2.415118192714857e-1 2.445496639866827e-1
      2.476257200844175e-1 2.507404682047139e-1 2.538943950333031e-1 2.570879933776680e-1
      2.603217622440482e-1 2.635962069154073e-1 2.669118390303876e-1 2.702691766632532e-1
      2.736687444048389e-1 2.771110734445217e-1 2.805967016532166e-1 2.841261736674232e-1
      2.877000409743251e-1 2.913188619979590e-1 2.949832021864733e-1 2.986936341004768e-1
      3.024507375025054e-1 3.062550994476101e-1 3.101073143750839e-1 3.140079842013475e-1
      3.179577184139962e-1 3.219571341670371e-1 3.260068563773189e-1 3.301075178221755e-1
      3.342597592383012e-1 3.384642294218640e-1 3.427215853298848e-1 3.470324921828865e-1
      3.513976235688343e-1 3.558176615483894e-1 3.602932967614773e-1 3.648252285352067e-1
      3.694141649931381e-1 3.740608231659279e-1 3.787659291033707e-1 3.835302179878406e-1
      3.883544342491692e-1 3.932393316809634e-1 3.981856735583835e-1 4.031942327574129e-1
      4.082657918756150e-1 4.134011433544210e-1 4.186010896029478e-1 4.238664431233748e-1
      4.291980266379038e-1 4.345966732173042e-1 4.400632264110887e-1 4.455985403793163e-1
      4.512034800260546e-1 4.568789211345284e-1 4.626257505039560e-1 4.684448660881194e-1
      4.743371771356682e-1 4.803036043321901e-1 4.863450799440752e-1 4.924625479641773e-1
      4.986569642593225e-1 5.049292967196579e-1 5.112805254098925e-1 5.177116427224314e-1
      5.242236535324373e-1 5.308175753548499e-1 5.374944385033676e-1 5.442552862514423e-1
      5.511011749952908e-1 5.580331744189553e-1 5.650523676614511e-1 5.721598514860010e-1
      5.793567364514137e-1 5.866441470856087e-1 5.940232220613213e-1 6.014951143740318e-1
      6.090609915221135e-1 6.167220356892646e-1 6.244794439292241e-1 6.323344283528096e-1
      6.402882163173209e-1 6.483420506183071e-1 6.564971896837646e-1 6.647549077707651e-1
      6.731164951645581e-1 6.815832583801878e-1 6.901565203666302e-1 6.988376207135142e-1
      7.076279158604322e-1 7.165287793088821e-1 7.255416018368896e-1 7.346677917163086e-1
      7.439087749328765e-1 7.532659954090233e-1 7.627409152294828e-1 7.723350148697569e-1
      7.820497934274306e-1 7.918867688564201e-1 8.018474782041508e-1 8.119334778517212e-1
      8.221463437570987e-1 8.324876717013565e-1 8.429590775380269e-1 8.535621974455779e-1
      8.642986881830637e-1 8.751702273490093e-1 8.861785136435241e-1 8.973252671337399e-1
      9.086122295225694e-1 9.200411644208463e-1 9.316138576229037e-1 9.433321173855960e-1
      9.551977747108541e-1 9.672126836317775e-1 9.793787215023260e-1 9.916977892906724e-1
      1.004171811876219e0 1.016802738350374e0 1.029592542321100e0 1.042543222221284e0
      1.055656801621012e0 1.068935329543742e0 1.082380880786479e0 1.095995556243962e0
      1.109781483236927e0 1.123740815844517e0 1.137875735240850e0 1.152188450035839e0
      1.166681196620295e0 1.181356239515352e0 1.196215871726323e0 1.211262415100969e0
      1.226498220692308e0 1.241925669125962e0 1.257547170972132e0 1.273365167122268e0
      1.289382129170446e0 1.305600559799575e0 1.322022993172441e0 1.338651995327664e0
      1.355490164580668e0 1.372540131929652e0 1.389804561466704e0 1.407286150794067e0
      1.424987631445635e0 1.442911769313779e0 1.461061365081502e0 1.479439254660072e0
      1.498048309632127e0 1.516891437700363e0 1.535971583141882e0 1.555291727268223e0
      1.574854888891214e0 1.594664124794665e0 1.614722530211982e0 1.635033239309825e0
      1.655599425677809e0 1.676424302824399e0 1.697511124679019e0 1.718863186100481e0
      1.740483823391828e0 1.762376414821619e0 1.784544381151808e0 1.806991186172239e0
      1.829720337241859e0 1.852735385836771e0 1.876039928105136e0 1.899637605429100e0
      1.923532104993759e0 1.947727160363276e0 1.972226552064285e0 1.997034108176577e0
      2.022153704931268e0 2.047589267316463e0 2.073344769690524e0 2.099424236403106e0
      2.125831742423935e0 2.152571413979555e0 2.179647429198054e0 2.207064018761888e0
      2.234825466568965e0 2.262936110401977e0 2.291400342606218e0 2.320222610775886e0
      2.349407418449013e0 2.378959325811183e0 2.408882950408037e0 2.439182967866804e0
      2.469864112626860e0 2.500931178679487e0 2.532389020316971e0 2.564242552891061e0
      2.596496753581032e0 2.629156662171368e0 2.662227381839225e0 2.695714079951842e0
      2.729621988873920e0 2.763956406785219e0 2.798722698508396e0 2.833926296347255e0
      2.869572700935592e0 2.905667482096635e0 2.942216279713383e0 2.979224804609826e0
      3.016698839443265e0 3.054644239607893e0 3.093066934149677e0 3.131972926692815e0
      3.171368296377802e0 3.211259198811293e0 3.251651867027960e0 3.292552612464382e0
      3.333967825945252e0 3.375903978681942e0 3.418367623283626e0 3.461365394781176e0
      3.504904011663857e0 3.548990276929143e0 3.593631079145683e0 3.638833393529632e0
      3.684604283034591e0 3.730950899455153e0 3.777880484544433e0 3.825400371145587e0
      3.873517984337564e0 3.922240842595334e0 3.971576558964614e0 4.021532842251466e0
      4.072117498226801e0 4.123338430846013e0 4.175203643484049e0 4.227721240185891e0
      4.280899426932876e0 4.334746512924886e0 4.389270911878642e0 4.444481143342428e0
      4.500385834027221e0 4.556993719154686e0 4.614313643822054e0 4.672354564384155e0
      4.731125549852927e0 4.790635783314406e0 4.850894563363652e0 4.911911305557654e0
      4.973695543886500e0 5.036256932263153e0 5.099605246031804e0 5.163750383495376e0
      5.228702367462112e0 5.294471346811630e0 5.361067598080783e0 5.428501527069303e0
      5.496783670465800e0 5.565924697494110e0 5.635935411580356e0 5.706826752041071e0
      5.778609795792412e0 5.851295759081017e0 5.924895999236544e0 5.999422016446236e0
      6.074885455551925e0 6.151298107869485e0 6.228671913031313e0 6.307018960851894e0
      6.386351493216828e0 6.466681905995721e0 6.548022750978980e0 6.630386737839136e0
      6.713786736116718e0 6.798235777231111e0 6.883747056516826e0 6.970333935285203e0
      7.058009942912222e0 7.146788778952466e0 7.236684315279665e0 7.327710598254287e0
      7.419881850918216e0 7.513212475217218e0 7.607717054251236e0 7.703410354552987e0
      7.800307328395361e0 7.898423116127632e0 7.997773048541263e0 8.098372649265340e0
      8.200237637192117e0 8.303383928933233e0 8.407827641306596e0 8.513585093854772e0
      8.620672811394899e0 8.729107526600689e0 8.838906182617032e0 8.950085935707287e0
      9.062664157934089e0 9.176658439873716e0 9.292086593364614e0 9.408966654290639e0
      9.527316885399072e0 9.647155779154325e0 9.768502060627380e0 9.891374690421561e0
      1.001579286763530e1 1.014177603286187e1 1.026934387122718e1 1.039851631546554e1
      1.052931354903411e1 1.066175600926679e1 1.079586439056742e1 1.093165964764342e1
      1.106916299878002e1 1.120839592915555e1 1.134938019419869e1 1.149213782298765e1
      1.163669112169238e1 1.178306267705993e1 1.193127535994358e1 1.208135232887661e1
      1.223331703369070e1 1.238719321918019e1 1.254300492881213e1 1.270077650848313e1
      1.286053261032352e1 1.302229819654922e1 1.318609854336219e1 1.335195924489992e1
      1.351990621723441e1 1.368996570242182e1 1.386216427260267e1 1.403652883415391e1
      1.421308663189305e1 1.439186525333514e1 1.457289263300357e1 1.475619705679467e1
      1.494180716639760e1 1.512975196376965e1 1.532006081566773e1 1.551276345823720e1
      1.570789000165795e1 1.590547093484941e1 1.610553713023440e1 1.630811984856293e1
      1.651325074379695e1 1.672096186805613e1 1.693128567662626e1 1.714425503303036e1
      1.735990321416359e1 1.757826391549307e1 1.779937125632257e1 1.802325978512397e1
      1.824996448493544e1 1.847952077882748e1 1.871196453543813e1 1.894733207457719e1
      1.918566017290155e1 1.942698606966150e1 1.967134747251930e1 1.991878256344139e1
      2.016933000466405e1 2.042302894473477e1 2.067991902462911e1 2.094004038394464e1
      2.120343366717303e1 2.147014003005061e1 2.174020114598922e1 2.201365921258771e1
      2.229055695822527e1 2.257093764873808e1 2.285484509417940e1 2.314232365566522e1
      2.343341825230571e1 2.372817436822374e1 2.402663805966219e1 2.432885596218000e1
      2.463487529793933e1 2.494474388308406e1 2.525851013521095e1 2.557622308093535e1
      2.589793236355133e1 2.622368825078887e1 2.655354164266814e1 2.688754407945265e1
      2.722574774970274e1 2.756820549842989e1 2.791497083535412e1 2.826609794326488e1
      2.862164168648704e1 2.898165761945395e1 2.934620199538749e1 2.971533177508811e1
      3.008910463583496e1 3.046757898039787e1 3.085081394616329e1 3.123886941437421e1
      3.163180601948710e1 3.202968515864599e1 3.243256900127578e1 3.284052049879664e1
      3.325360339445994e1 3.367188223330860e1 3.409542237226226e1 3.452428999032920e1
      3.495855209894740e1 3.539827655245473e1 3.584353205869173e1 3.629438818973719e1
      3.675091539277875e1 3.721318500112081e1 3.768126924533004e1 3.815524126452200e1
      3.863517511778904e1 3.912114579577205e1 3.961322923237830e1 4.011150231664579e1
      4.061604290475772e1 4.112692983220760e1 4.164424292611706e1 4.216806301770967e1
      4.269847195494032e1 4.323555261528464e1 4.377938891868859e1 4.433006584068088e1
      4.488766942565105e1 4.545228680029359e1 4.602400618722207e1 4.660291691875395e1
      4.718910945086868e1 4.778267537734217e1 4.838370744405789e1 4.899229956349917e1
      4.960854682942294e1 5.023254553171809e1 5.086439317145158e1 5.150418847610241e1
      5.215203141498873e1 5.280802321488786e1 5.347226637585298e1 5.414486468722961e1
      5.482592324387209e1 5.551554846256564e1 5.621384809865382e1 5.692093126287528e1
      5.763690843841319e1 5.836189149815771e1 5.909599372218700e1 5.983932981546723e1
      6.059201592577508e1 6.135416966184685e1 6.212591011175420e1 6.290735786151267e1
      6.369863501392312e1 6.449986520765027e1 6.531117363654221e1 6.613268706919136e1
      6.696453386874308e1 6.780684401295232e1 6.865974911449254e1 6.952338244152137e1
      7.039787893850299e1 7.128337524729435e1 7.218000972849537e1 7.308792248306770e1
      7.400725537422670e1 7.493815204960672e1 7.588075796370733e1 7.683522040062051e1
      7.780168849704362e1 7.878031326558329e1 7.977124761835038e1 8.077464639085369e1
      8.179066636619300e1 8.281946629955629e1 8.386120694302654e1 8.491605107069846e1
      8.598416350411323e1 8.706571113801177e1 8.816086296641208e1 8.926979010901569e1
      9.039266583794449e1 9.152966560481575e1 9.268096706815649e1 9.384675012116238e1
      9.502719691980754e1 9.622249191130559e1 9.743282186293097e1 9.865837589120119e1
      9.989934549142630e1
      </PP_R>
    <PP_RAB>
      4.221675766456094e-7 4.274777910504733e-7 4.328547997298991e-7 4.382994428524324e-7
      4.438125711546387e-7 4.493950460740318e-7 4.550477398836753e-7 4.607715358284775e-7
      4.665673282631993e-7 4.724360227922013e-7 4.783785364109431e-7 4.843957976492680e-7
      4.904887467164862e-7 4.966583356482857e-7 5.029055284554897e-7 5.092313012746845e-7
      5.156366425207421e-7 5.221225530412649e-7 5.286900462729665e-7 5.353401484000267e-7
      5.420738985144325e-7 5.488923487783394e-7 5.557965645884727e-7 5.627876247425995e-7
      5.698666216080932e-7 5.770346612926157e-7 5.842928638169511e-7 5.916423632900115e-7
      5.990843080860408e-7 6.066198610240557e-7 6.142501995495332e-7 6.219765159183920e-7
      6.298000173832843e-7 6.377219263822303e-7 6.457434807296290e-7 6.538659338096675e-7
      6.620905547721641e-7 6.704186287308777e-7 6.788514569643068e-7 6.873903571190215e-7
      6.960366634155429e-7 7.047917268568202e-7 7.136569154393290e-7 7.226336143668205e-7