<UPF version="2.0.1">
  <PP_INFO><![CDATA[
Generated using "atomic" code by A. Dal Corso  v.6.6
Author: ADC
Generation date: 20May2021
Pseudopotential type: USPP
Element: Ag
Functional: PBE
    Suggested minimum cutoff for wavefunctions:  45. Ry
    Suggested minimum cutoff for charge density: 182. Ry
    The Pseudo was generated with a Fully-Relativistic Calculation
    Local Potential by smoothing AE potential with Bessel fncs, cutoff radius:   2.4000
    Pseudopotential contains additional information for spin-orbit calculations.
    Valence configuration:
    nl pn  l   occ       Rcut    Rcut US       E pseu
    5S  1  0  1.50      1.600      2.200    -0.365751
    5P  2  1  0.00      1.600      2.200    -0.079052
    5P  2  1  0.00      1.600      2.200    -0.069010
    4D  3  2  4.00      1.600      1.700    -0.689492
    4D  3  2  5.50      1.600      1.700    -0.647138
    Generation configuration:
    5S  1  0  1.50      1.600      2.200    -0.365750
    5S  1  0  0.00      1.600      2.200     6.500000
    5P  2  1  0.00      1.600      2.200    -0.079053
    5P  2  1  0.00      1.600      2.200    -0.069010
    5P  2  1  0.00      1.600      2.200     6.000000
    5P  2  1  0.00      1.600      2.200     6.000000
    4D  3  2  4.00      1.600      1.700    -0.689492
    4D  3  2  5.50      1.600      1.700    -0.647137
    4D  3  2  0.00      1.600      1.700     0.030000
    4D  3  2  0.00      1.600      1.700     0.030000
    Pseudization used: troullier-martins
]]>
    <PP_INPUTFILE><![CDATA[
 &input
   title='Ag',
   zed=47.,
   rel=2,
   config='[Kr] 5s1.5 5p0 4d9.5',
   iswitch=3,
   dft='PBE'
 /
 &inputp
   lpaw=.false.,
   pseudotype=3,
   file_pseudopw='Ag.rel-pbe-n-rrkjus_psl.1.0.0.UPF',
   author='ADC',
   lloc=-1,
   rcloc=2.4,
   which_augfun='PSQ',
   rmatch_augfun_nc=.true.,
   nlcc=.true.,
   new_core_ps=.true.,
   rcore=1.8,
   tm=.true.
 /
6
5S  1  0  1.50  0.00  1.60  2.20  0.0
5S  1  0  0.00  6.50  1.60  2.20  0.0
5P  2  1  0.00  0.00  1.60  2.20  0.0
5P  2  1  0.00  6.00  1.60  2.20  0.0
4D  3  2  9.50  0.00  1.60  1.70  0.0
4D  3  2  0.00  0.03  1.60  1.70  0.0
]]></PP_INPUTFILE>
  </PP_INFO>
  <!--
 END OF HUMAN READABLE SECTION 
-->
  <PP_HEADER generated="Generated using &quot;atomic&quot; code by A. Dal Corso  v.6.6" author="ADC" date="20May2021" comment="" element="Ag" pseudo_type="USPP" relativistic="full" is_ultrasoft="true" is_paw="false" is_coulomb="false" has_so="true" has_wfc="false" has_gipaw="false" paw_as_gipaw="false" core_correction="true" functional="PBE" z_valence="1.100000000000e1" total_psenergy="-8.398123425368e1" wfc_cutoff="4.549971059824e1" rho_cutoff="1.819988423930e2" l_max="2" l_max_rho="4" l_local="-1" mesh_size="1237" number_of_wfc="5" number_of_proj="10"/>
  <PP_MESH dx="1.250000000000e-2" mesh="1237" xmin="-7.000000000000e0" rmax="1.000000000000e2" zmesh="4.700000000000e1">
    <PP_R>
      1.940174394796843e-5 1.964578784402175e-5 1.989290143439537e-5 2.014312333109051e-5
      2.039649263178766e-5 2.065304892595551e-5 2.091283230103699e-5 2.117588334871301e-5
      2.144224317124490e-5 2.171195338789691e-5 2.198505614143909e-5 2.226159410473231e-5
      2.254161048739596e-5 2.282514904255950e-5 2.311225407369911e-5 2.340297044155996e-5
      2.369734357116603e-5 2.399541945891771e-5 2.429724467977889e-5 2.460286639455442e-5
      2.491233235725903e-5 2.522569092257899e-5 2.554299105342768e-5 2.586428232859606e-5
      2.618961495049960e-5 2.651903975302234e-5 2.685260820945988e-5 2.719037244056222e-5
      2.753238522267762e-5 2.787869999599915e-5 2.822937087291471e-5 2.858445264646226e-5
      2.894400079889135e-5 2.930807151033228e-5 2.967672166757445e-5 3.005000887295493e-5
      3.042799145335903e-5 3.081072846933394e-5 3.119827972431709e-5 3.159070577398057e-5
      3.198806793569303e-5 3.239042829810068e-5 3.279784973082873e-5 3.321039589430494e-5
      3.362813124970675e-5 3.405112106903327e-5 3.447943144530440e-5 3.491312930288779e-5
      3.535228240795604e-5 3.579695937907534e-5 3.624722969792711e-5 3.670316372016472e-5
      3.716483268640680e-5 3.763230873336853e-5 3.810566490513340e-5 3.858497516456628e-5
      3.907031440487037e-5 3.956175846128938e-5 4.005938412295697e-5 4.056326914489524e-5
      4.107349226016402e-5 4.159013319216313e-5 4.211327266708929e-5 4.264299242654977e-5
      4.317937524033477e-5 4.372250491935019e-5 4.427246632871339e-5 4.482934540101350e-5
      4.539322914973846e-5 4.596420568287138e-5 4.654236421665713e-5 4.712779508954291e-5
      4.772058977629369e-5 4.832084090228525e-5 4.892864225797736e-5 4.954408881356837e-5
      5.016727673383475e-5 5.079830339315688e-5 5.143726739073412e-5 5.208426856599113e-5
      5.273940801417785e-5 5.340278810216592e-5 5.407451248444381e-5 5.475468611931277e-5
      5.544341528528721e-5 5.614080759770046e-5 5.684697202552023e-5 5.756201890837503e-5
      5.828605997379508e-5 5.901920835466998e-5 5.976157860692581e-5 6.051328672742486e-5
      6.127445017209028e-5 6.204518787425888e-5 6.282562026326483e-5 6.361586928325660e-5
      6.441605841225140e-5 6.522631268142858e-5 6.604675869466615e-5 6.687752464832297e-5
      6.771874035126952e-5 6.857053724517076e-5 6.943304842502442e-5 7.030640865995706e-5
      7.119075441428240e-5 7.208622386882366e-5 7.299295694250498e-5 7.391109531421391e-5
      7.484078244493890e-5 7.578216360018574e-5 7.673538587267512e-5 7.770059820532646e-5
      7.867795141453048e-5 7.966759821371447e-5 8.066969323720443e-5 8.168439306438644e-5
      8.271185624417299e-5 8.375224331977625e-5 8.480571685379344e-5 8.587244145360762e-5
      8.695258379710781e-5 8.804631265873269e-5 8.915379893584209e-5 9.027521567541999e-5
      9.141073810111365e-5 9.256054364061212e-5 9.372481195337034e-5 9.490372495868090e-5
      9.609746686409927e-5 9.730622419422710e-5 9.853018581985630e-5 9.976954298748108e-5
      1.010244893491804e-4 1.022952209928763e-4 1.035819364729737e-4 1.048848368413841e-4
      1.062041256789408e-4 1.075400091272088e-4 1.088926959206947e-4 1.102623974194622e-4
      1.116493276421571e-4 1.130537032994484e-4 1.144757438278898e-4 1.159156714242069e-4
      1.173737110800164e-4 1.188500906169808e-4 1.203450407224065e-4 1.218587949852891e-4
      1.233915899328115e-4 1.249436650673032e-4 1.265152629036616e-4 1.281066290072459e-4
      1.297180120322476e-4 1.313496637605426e-4 1.330018391410332e-4 1.346747963294840e-4
      1.363687967288592e-4 1.380841050301678e-4 1.398209892538216e-4 1.415797207915143e-4
      1.433605744486270e-4 1.451638284871665e-4 1.469897646692453e-4 1.488386683011066e-4
      1.507108282777048e-4 1.526065371278446e-4 1.545260910598913e-4 1.564697900080518e-4
      1.584379376792412e-4 1.604308416005378e-4 1.624488131672333e-4 1.644921676914909e-4
      1.665612244516122e-4 1.686563067419254e-4 1.707777419233013e-4 1.729258614743024e-4
      1.751010010429793e-4 1.773035004993151e-4 1.795337039883305e-4 1.817919599838584e-4
      1.840786213429922e-4 1.863940453612219e-4 1.887385938282608e-4 1.911126330845769e-4
      1.935165340786346e-4 1.959506724248540e-4 1.984154284623049e-4 2.009111873141321e-4
      2.034383389477342e-4 2.059972782356956e-4 2.085884050174857e-4 2.112121241619364e-4
      2.138688456305018e-4 2.165589845413164e-4 2.192829612340585e-4 2.220412013356277e-4
      2.248341358266522e-4 2.276622011088282e-4 2.305258390731096e-4 2.334254971687551e-4
      2.363616284732406e-4 2.393346917630567e-4 2.423451515853910e-4 2.453934783307154e-4
      2.484801483062862e-4 2.516056438105663e-4 2.547704532085877e-4 2.579750710082574e-4
      2.612199979376263e-4 2.645057410231296e-4 2.678328136688084e-4 2.712017357365334e-4
      2.746130336272313e-4 2.780672403631379e-4 2.815648956710839e-4 2.851065460668261e-4
      2.886927449404454e-4 2.923240526428116e-4 2.960010365731409e-4 2.997242712676540e-4
      3.034943384893458e-4 3.073118273188911e-4 3.111773342466855e-4 3.150914632660511e-4
      3.190548259676110e-4 3.230680416348498e-4 3.271317373408815e-4 3.312465480464275e-4
      3.354131166990316e-4 3.396320943335239e-4 3.439041401737419e-4 3.482299217355410e-4
      3.526101149310905e-4 3.570454041744885e-4 3.615364824887040e-4 3.660840516138592e-4
      3.706888221168833e-4 3.753515135025354e-4 3.800728543258305e-4 3.848535823058790e-4
      3.896944444411527e-4 3.945961971262103e-4 3.995596062698810e-4 4.045854474149416e-4
      4.096745058592965e-4 4.148275767786807e-4 4.200454653509102e-4 4.253289868816900e-4
      4.306789669320084e-4 4.360962414471332e-4 4.415816568872286e-4 4.471360703596177e-4
      4.527603497527059e-4 4.584553738715909e-4 4.642220325753781e-4 4.700612269162222e-4
      4.759738692801191e-4 4.819608835294675e-4 4.880232051474240e-4 4.941617813840761e-4
      5.003775714044492e-4 5.066715464383805e-4 5.130446899322739e-4 5.194979977027668e-4
      5.260324780923275e-4 5.326491521268117e-4 5.393490536749988e-4 5.461332296101369e-4
      5.530027399735181e-4 5.599586581401130e-4 5.670020709862868e-4 5.741340790596273e-4
      5.813557967509056e-4 5.886683524682037e-4 5.960728888132303e-4 6.035705627598532e-4
      6.111625458348816e-4 6.188500243011166e-4 6.266341993427083e-4 6.345162872528448e-4
      6.424975196237979e-4 6.505791435393638e-4 6.587624217697210e-4 6.670486329687422e-4
      6.754390718737863e-4 6.839350495080014e-4 6.925378933851794e-4 7.012489477171780e-4
      7.100695736239590e-4 7.190011493462672e-4 7.280450704609793e-4 7.372027500991708e-4
      7.464756191669157e-4 7.558651265688715e-4 7.653727394346737e-4 7.749999433481753e-4
      7.847482425795747e-4 7.946191603204601e-4 8.046142389218101e-4 8.147350401349929e-4
      8.249831453557874e-4 8.353601558714853e-4 8.458676931110920e-4 8.565073988986777e-4
      8.672809357099197e-4 8.781899869318627e-4 8.892362571259556e-4 9.004214722943898e-4
      9.117473801497912e-4 9.232157503883059e-4 9.348283749661153e-4 9.465870683794366e-4
      9.584936679480387e-4 9.705500341023278e-4 9.827580506740452e-4 9.951196251906165e-4
      1.007636689173211e-3 1.020311198438542e-3 1.033145133404467e-3 1.046140499399438e-3
      1.059299326975829e-3 1.072623672227221e-3 1.086115617109668e-3 1.099777269767009e-3
      1.113610764860263e-3 1.127618263901187e-3 1.141801955590003e-3 1.156164056157394e-3
      1.170706809710793e-3 1.185432488585030e-3 1.200343393697390e-3 1.215441854907134e-3
      1.230730231379542e-3 1.246210911954544e-3 1.261886315519973e-3 1.277758891389531e-3
      1.293831119685489e-3 1.310105511726218e-3 1.326584610418584e-3 1.343270990655284e-3
      1.360167259717182e-3 1.377276057680693e-3 1.394600057830305e-3 1.412141967076290e-3
      1.429904526377654e-3 1.447890511170430e-3 1.466102731801331e-3 1.484544033966887e-3
      1.503217299158077e-3 1.522125445110579e-3 1.541271426260669e-3 1.560658234206854e-3
      1.580288898177317e-3 1.600166485503243e-3 1.620294102098092e-3 1.640674892942909e-3
      1.661312042577727e-3 1.682208775599164e-3 1.703368357164268e-3 1.724794093500707e-3
      1.746489332423379e-3 1.768457463857501e-3 1.790701920368307e-3 1.813226177697380e-3
      1.836033755305755e-3 1.859128216923838e-3 1.882513171108241e-3 1.906192271805632e-3
      1.930169218923671e-3 1.954447758909125e-3 1.979031685333266e-3 2.003924839484611e-3
      2.029131110969141e-3 2.054654438318061e-3 2.080498809603192e-3 2.106668263060134e-3
      2.133166887719228e-3 2.159998824044492e-3 2.187168264580563e-3 2.214679454607801e-3
      2.242536692805624e-3 2.270744331924174e-3 2.299306779464453e-3 2.328228498367000e-3
      2.357514007709233e-3 2.387167883411569e-3 2.417194758952421e-3 2.447599326092179e-3
      2.478386335606320e-3 2.509560598027715e-3 2.541126984398290e-3 2.573090427030142e-3
      2.605455920276212e-3 2.638228521310666e-3 2.671413350919092e-3 2.705015594298630e-3
      2.739040501868175e-3 2.773493390088760e-3 2.808379642294261e-3 2.843704709532564e-3
      2.879474111417291e-3 2.915693436990265e-3 2.952368345594794e-3 2.989504567759961e-3
      3.027107906096036e-3 3.065184236201134e-3 3.103739507579307e-3 3.142779744570146e-3
      3.182311047290109e-3 3.222339592585674e-3 3.262871634998477e-3 3.303913507742617e-3
      3.345471623694206e-3 3.387552476393412e-3 3.430162641059082e-3 3.473308775616136e-3
      3.516997621735884e-3 3.561236005889417e-3 3.606030840414260e-3 3.651389124594444e-3
      3.697317945754152e-3 3.743824480365138e-3 3.790915995168053e-3 3.838599848307891e-3
      3.886883490483718e-3 3.935774466112857e-3 3.985280414509724e-3 4.035409071079475e-3
      4.086168268526685e-3 4.137565938079227e-3 4.189610110727533e-3 4.242308918479472e-3
      4.295670595630967e-3 4.349703480052641e-3 4.404416014492613e-3 4.459816747895698e-3
      4.515914336739215e-3 4.572717546385546e-3 4.630235252451765e-3 4.688476442196468e-3
      4.747450215924038e-3 4.807165788406614e-3 4.867632490323883e-3 4.928859769721040e-3
      4.990857193485060e-3 5.053634448839535e-3 5.117201344858344e-3 5.181567813998314e-3
      5.246743913651204e-3 5.312739827715186e-3 5.379565868186096e-3 5.447232476768725e-3
      5.515750226508333e-3 5.585129823442712e-3 5.655382108275038e-3 5.726518058067741e-3
      5.798548787957715e-3 5.871485552893048e-3 5.945339749391647e-3 6.020122917321979e-3
      6.095846741706172e-3 6.172523054545859e-3 6.250163836670914e-3 6.328781219611503e-3
      6.408387487493666e-3 6.488995078958709e-3 6.570616589106805e-3 6.653264771464976e-3
      6.736952539979859e-3 6.821692971035551e-3 6.907499305496803e-3 6.994384950777961e-3
      7.082363482937866e-3 7.171448648801160e-3 7.261654368106254e-3 7.352994735680308e-3
      7.445484023641605e-3 7.539136683629549e-3 7.633967349062804e-3 7.729990837425777e-3
      7.827222152583879e-3 7.925676487127936e-3 8.025369224748024e-3 8.126315942637214e-3
      8.228532413925564e-3 8.332034610144659e-3 8.436838703723254e-3 8.542961070514187e-3
      8.650418292353178e-3 8.759227159649761e-3 8.869404674010816e-3 8.980968050897140e-3
      9.093934722313337e-3 9.208322339531650e-3 9.324148775849991e-3 9.441432129384676e-3
      9.560190725898334e-3 9.680443121663272e-3 9.802208106360981e-3 9.925504706018057e-3
      1.005035218597904e-2 1.017677005391668e-2 1.030477806288006e-2 1.043439621438099e-2
      1.056564476151936e-2 1.069854421214768e-2 1.083311533207552e-2 1.096937914831413e-2
      1.110735695236205e-2 1.124707030353187e-2 1.138854103231894e-2 1.153179124381249e-2
      1.167684332114950e-2 1.182371992901216e-2 1.197244401716928e-2 1.212303882406219e-2
      1.227552788043589e-2 1.242993501301566e-2 1.258628434823012e-2 1.274460031598097e-2
      1.290490765346028e-2 1.306723140901570e-2 1.323159694606426e-2 1.339802994705554e-2
      1.356655641748455e-2 1.373720268995515e-2 1.390999542829463e-2 1.408496163171988e-2
      1.426212863905616e-2 1.444152413300883e-2 1.462317614448877e-2 1.480711305699239e-2
      1.499336361103646e-2 1.518195690864900e-2 1.537292241791644e-2 1.556628997758812e-2
      1.576208980173868e-2 1.596035248448898e-2 1.616110900478657e-2 1.636439073124619e-2
      1.657022942705117e-2 1.677865725491653e-2 1.698970678211441e-2 1.720341098556283e-2
      1.741980325697835e-2 1.763891740809362e-2 1.786078767594058e-2 1.808544872819997e-2
      1.831293566861826e-2 1.854328404249274e-2 1.877652984222544e-2 1.901270951294715e-2
      1.925185995821191e-2 1.949401854576336e-2 1.973922311337348e-2 1.998751197475480e-2
      2.023892392554711e-2 2.049349824937919e-2 2.075127472400709e-2 2.101229362752941e-2
      2.127659574468085e-2 2.154422237320500e-2 2.181521533030701e-2 2.208961695918778e-2
      2.236747013566010e-2 2.264881827484807e-2 2.293370533797089e-2 2.322217583921175e-2
      2.351427485267336e-2 2.381004801942088e-2 2.410954155461333e-2 2.441280225472495e-2
      2.471987750485710e-2 2.503081528614237e-2 2.534566418324168e-2 2.566447339193576e-2
      2.598729272681213e-2 2.631417262904862e-2 2.664516417429500e-2 2.698031908065363e-2
      2.731968971676046e-2 2.766332910996790e-2 2.801129095463025e-2 2.836362962049369e-2
      2.872040016119158e-2 2.908165832284673e-2 2.944746055278195e-2 2.981786400833987e-2
      3.019292656581400e-2 3.057270682949203e-2 3.095726414081279e-2 3.134665858763863e-2
      3.174095101364406e-2 3.214020302782284e-2 3.254447701411446e-2 3.295383614115177e-2
      3.336834437213126e-2 3.378806647480732e-2 3.421306803161242e-2 3.464341544990449e-2
      3.507917597234316e-2 3.552041768739666e-2 3.596720953998068e-2 3.641962134223118e-2
      3.687772378441268e-2 3.734158844596380e-2 3.781128780668167e-2 3.828689525804700e-2
      3.876848511469170e-2 3.925613262601066e-2 3.974991398791963e-2 4.024990635476106e-2
      4.075618785135950e-2 4.126883758522883e-2 4.178793565893296e-2 4.231356318260195e-2
      4.284580228660589e-2 4.338473613438757e-2 4.393044893545718e-2 4.448302595855015e-2
      4.504255354495053e-2 4.560911912198212e-2 4.618281121666900e-2 4.676371946956815e-2
      4.735193464877594e-2 4.794754866411083e-2 4.855065458147456e-2 4.916134663739371e-2
      4.977972025374450e-2 5.040587205266258e-2 5.103989987164038e-2 5.168190277881466e-2
      5.233198108844576e-2 5.299023637659218e-2 5.365677149698191e-2 5.433169059708355e-2
      5.501509913437972e-2 5.570710389284471e-2 5.640781299962995e-2 5.711733594195898e-2
      5.783578358423500e-2 5.856326818536398e-2 5.929990341629471e-2 6.004580437778085e-2
      6.080108761836522e-2 6.156587115259066e-2 6.234027447944053e-2 6.312441860100996e-2
      6.391842604141345e-2 6.472242086592905e-2 6.553652870038364e-2 6.636087675078288e-2
      6.719559382318657e-2 6.804081034383564e-2 6.889665837953113e-2 6.976327165826966e-2
      7.064078559013939e-2 7.152933728847723e-2 7.242906559129400e-2 7.334011108296760e-2
      7.426261611620939e-2 7.519672483430795e-2 7.614258319365065e-2 7.710033898653066e-2
      7.807014186423928e-2 7.905214336044902e-2 8.004649691489179e-2 8.105335789733324e-2
      8.207288363185048e-2 8.310523342141394e-2 8.415056857277824e-2 8.520905242168785e-2
      8.628085035839737e-2 8.736612985351513e-2 8.846506048417044e-2 8.957781396050979e-2
      9.070456415252814e-2 9.184548711723499e-2 9.300076112616505e-2 9.417056669323271e-2
      9.535508660293754e-2 9.655450593892569e-2 9.776901211290829e-2 9.899879489394614e-2
      1.002440464381009e-1 1.015049613184596e-1 1.027817365555380e-1 1.040745716480640e-1
      1.053836686041513e-1 1.067092319728630e-1 1.080514688761720e-1 1.094105890413253e-1
      1.107868048336138e-1 1.121803312895551e-1 1.135913861504932e-1 1.150201898966206e-1
      1.164669657814299e-1 1.179319398665962e-1 1.194153410573012e-1 1.209174011379989e-1
      1.224383548086326e-1 1.239784397213081e-1 1.255378965174259e-1 1.271169688652835e-1
      1.287159034981479e-1 1.303349502528082e-1 1.319743621086143e-1 1.336343952270036e-1
      1.353153089915283e-1 1.370173660483843e-1 1.387408323474492e-1 1.404859771838390e-1
      1.422530732399845e-1 1.440423966282399e-1 1.458542269340252e-1 1.476888472595114e-1
      1.495465442678575e-1 1.514276082279999e-1 1.533323330600099e-1 1.552610163810178e-1
      1.572139595517160e-1 1.591914677234486e-1 1.611938498858904e-1 1.632214189153282e-1
      1.652744916235485e-1 1.673533888073381e-1 1.694584352986124e-1 1.715899600151675e-1
      1.737482960120776e-1 1.759337805337335e-1 1.781467550665375e-1 1.803875653922634e-1
      1.826565616420829e-1 1.849540983512766e-1 1.872805345146300e-1 1.896362336425263e-1
      1.920215638177475e-1 1.944368977529857e-1 1.968826128490828e-1 1.993590912539986e-1
      2.018667199225218e-1 2.044058906767343e-1 2.069770002672317e-1 2.095804504351188e-1
      2.122166479747814e-1 2.148860047974479e-1 2.175889379955534e-1 2.203258699079084e-1
      2.230972281856930e-1 2.259034458592768e-1 2.287449614058799e-1 2.316222188180883e-1
      2.345356676732257e-1 2.374857632036035e-1 2.404729663676509e-1 2.434977439219387e-1
      2.465605684941150e-1 2.496619186567492e-1 2.528022790021148e-1 2.559821402179051e-1
      2.592019991639037e-1 2.624623589496227e-1 2.657637290129109e-1 2.691066251995579e-1
      2.724915698438945e-1 2.759190918504071e-1 2.793897267763836e-1 2.829040169155912e-1
      2.864625113830151e-1 2.900657662006545e-1 2.937143443844063e-1 2.974088160320351e-1
      3.011497584122512e-1 3.049377560549138e-1 3.087734008423601e-1 3.126572921018924e-1
      3.165900366994223e-1 3.205722491342935e-1 3.246045516353017e-1 3.286875742579154e-1
      3.328219549827271e-1 3.370083398151368e-1 3.412473828862910e-1 3.455397465552949e-1
      3.498861015127035e-1 3.542871268853222e-1 3.587435103423202e-1 3.632559482026779e-1
      3.678251455439929e-1 3.724518163126445e-1 3.771366834353541e-1 3.818804789321416e-1
      3.866839440307036e-1 3.915478292822356e-1 3.964728946787025e-1 4.014599097715933e-1
      4.065096537921631e-1 4.116229157731876e-1 4.168004946722557e-1 4.220431994966028e-1
      4.273518494295248e-1 4.327272739583750e-1 4.381703130041710e-1 4.436818170528390e-1
      4.492626472880985e-1 4.549136757260285e-1 4.606357853513208e-1 4.664298702552441e-1
      4.722968357753546e-1 4.782375986369495e-1 4.842530870963134e-1 4.903442410857575e-1
      4.965120123604835e-1 5.027573646473032e-1 5.090812737952159e-1 5.154847279278931e-1
      5.219687275980718e-1 5.285342859438904e-1 5.351824288471999e-1 5.419141950938531e-1
      5.487306365360226e-1 5.556328182565531e-1 5.626218187353787e-1 5.696987300180459e-1
      5.768646578863384e-1 5.841207220310659e-1 5.914680562270147e-1 5.989078085100990e-1
      6.064411413567514e-1 6.140692318655540e-1 6.217932719411690e-1 6.296144684805740e-1
      6.375340435616388e-1 6.455532346340842e-1 6.536732947128284e-1 6.618954925737800e-1
      6.702211129520844e-1 6.786514567428617e-1 6.871878412044835e-1 6.958316001643866e-1
      7.045840842274959e-1 7.134466609872546e-1 7.224207152393096e-1 7.315076491978985e-1
      7.407088827149372e-1 7.500258535018838e-1 7.594600173543810e-1 7.690128483797221e-1
      7.786858392271922e-1 7.884805013212892e-1 7.983983650978937e-1 8.084409802434001e-1
      8.186099159368540e-1 8.289067610951493e-1 8.393331246212885e-1 8.498906356557859e-1
      8.605809438312219e-1 8.714057195299958e-1 8.823666541453365e-1 8.934654603455746e-1
      9.047038723417613e-1 9.160836461586374e-1 9.276065599090108e-1 9.392744140716019e-1
      9.510890317723588e-1 9.630522590693355e-1 9.751659652411387e-1 9.874320430789995e-1
      9.998524091825393e-1 1.012429004259228e0 1.025163793427634e0 1.038058766524478e0
      1.051115938415536e0 1.064337349310485e0 1.077725065081674e0 1.091281177586930e0
      1.105007804996415e0 1.118907092123584e0 1.132981210760334e0 1.147232360016331e0
      1.161662766662643e0 1.176274685479670e0 1.191070399609450e0 1.206052220912423e0
      1.221222490328643e0 1.236583578243574e0 1.252137884858457e0 1.267887840565340e0
      1.283835906326852e0 1.299984574060710e0 1.316336367029104e0 1.332893840232956e0
      1.349659580811135e0 1.366636208444722e0 1.383826375766319e0 1.401232768774547e0
      1.418858107253728e0 1.436705145198854e0 1.454776671245920e0 1.473075509107631e0
      1.491604518014635e0 1.510366593162275e0 1.529364666162959e0 1.548601705504250e0
      1.568080717012678e0 1.587804744323424e0 1.607776869355887e0 1.628000212795232e0
      1.648477934580021e0 1.669213234395939e0 1.690209352175773e0 1.711469568605645e0
      1.732997205637620e0 1.754795627008790e0 1.776868238766836e0 1.799218489802255e0
      1.821849872387248e0 1.844765922721381e0 1.867970221484147e0 1.891466394394433e0
      1.915258112777060e0 1.939349094136435e0 1.963743102737402e0 1.988443950193441e0
      2.013455496062216e0 2.038781648448657e0 2.064426364615605e0 2.090393651602129e0
      2.116687566849659e0 2.143312218835939e0 2.170271767717014e0 2.197570425977252e0
      2.225212459087537e0 2.253202186171788e0 2.281543980681799e0 2.310242271080630e0
      2.339301541534545e0 2.368726332613667e0 2.398521242001475e0 2.428690925213171e0
      2.459240096323142e0 2.490173528701530e0 2.521496055760071e0 2.553212571707352e0
      2.585328032313510e0 2.617847455684607e0 2.650775923046712e0 2.684118579539834e0
      2.717880635021894e0 2.752067364882744e0 2.786684110868481e0 2.821736281916099e0
      2.857229354998628e0 2.893168875980960e0 2.929560460486356e0 2.966409794773940e0
      3.003722636627170e0 3.041504816253490e0 3.079762237195343e0 3.118500877252578e0
      3.157726789416524e0 3.197446102815766e0 3.237665023673822e0 3.278389836278913e0
      3.319626903965853e0 3.361382670110372e0 3.403663659135887e0 3.446476477532944e0
      3.489827814891532e0 3.533724444946300e0 3.578173226635009e0 3.623181105170237e0
      3.668755113124560e0 3.714902371529456e0 3.761630090987925e0 3.808945572801206e0
      3.856856210109603e0 3.905369489047659e0 3.954492989913922e0 4.004234388355330e0
      4.054601456566596e0 4.105602064504608e0 4.157244181118105e0 4.209535875592888e0
      4.262485318612592e0 4.316100783635423e0 4.370390648186880e0 4.425363395168737e0
      4.481027614184569e0 4.537392002881831e0 4.594465368310939e0 4.652256628301365e0
      4.710774812855046e0 4.770029065557389e0 4.830028645005917e0 4.890782926256997e0
      4.952301402290687e0 5.014593685494013e0 5.077669509162976e0 5.141538729023336e0
      5.206211324770647e0 5.271697401629582e0 5.338007191932864e0 5.405151056720155e0
      5.473139487356915e0 5.541983107173762e0 5.611692673126367e0 5.682279077476216e0
      5.753753349492617e0 5.826126657175969e0 5.899410309002850e0 5.973615755692969e0
      6.048754591998318e0 6.124838558514965e0 6.201879543517451e0 6.279889584816432e0
      6.358880871639586e0 6.438865746536167e0 6.519856707305630e0 6.601866408950349e0
      6.684907665653069e0 6.768993452779108e0 6.854136908903756e0 6.940351337865283e0
      7.027650210843594e0 7.116047168465213e0 7.205556022934629e0 7.296190760192434e0
      7.387965542100747e0 7.480894708655932e0 7.574992780229342e0 7.670274459836121e0
      7.766754635432529e0 7.864448382242324e0 7.963370965112174e0 8.063537840896926e0
      8.164964660874729e0 8.267667273192528e0 8.371661725342477e0 8.476964266669276e0
      8.583591350909257e0 8.691559638761287e0 8.800886000489974e0 8.911587518561793e0
      9.023681490314139e0 9.137185430658169e0 9.252117074815503e0 9.368494381089338e0
      9.486335533670587e0 9.605658945479053e0 9.726483261040617e0 9.848827359400417e0
      9.972710357072703e0 1.009815161102793e1 1.022517072171722e1 1.035378753613505e1
      1.048402215092036e1 1.061589491549664e1 1.074942643525169e1 1.088463757475711e1
      1.102154946102855e1 1.116018348682682e1 1.130056131400045e1 1.144270487687058e1
      1.158663638565807e1 1.173237832995402e1 1.187995348223374e1 1.202938490141500e1
      1.218069593646110e1 1.233391023002907e1 1.248905172216402e1 1.264614465403975e1
      1.280521357174643e1 1.296628333012613e1 1.312937909665625e1 1.329452635538215e1
      1.346175091089902e1 1.363107889238385e1 1.380253675767828e1 1.397615129742255e1
      1.415194963924174e1 1.432995925198446e1 1.451020795001480e1 1.469272389755860e1
      1.487753561310395e1 1.506467197385743e1 1.525416222025617e1 1.544603596053663e1
      1.564032317536115e1 1.583705422250228e1 1.603625984158641e1 1.623797115889684e1
      1.644221969223723e1 1.664903735585653e1 1.685845646543537e1 1.707050974313572e1
      1.728523032271370e1 1.750265175469665e1 1.772280801162572e1 1.794573349336390e1
      1.817146303247131e1 1.840003189964770e1 1.863147580924353e1 1.886583092484062e1
      1.910313386490252e1 1.934342170849643e1 1.958673200108683e1 1.983310276040188e1
      2.008257248237404e1 2.033518014715484e1 2.059096522520588e1 2.084996768346605e1
      2.111222799159630e1 2.137778712830344e1 2.164668658774279e1 2.191896838600200e1
      2.219467506766605e1 2.247384971246479e1 2.275653594200456e1 2.304277792658375e1
      2.333262039209486e1 2.362610862701287e1 2.392328848947150e1 2.422420641442896e1
      2.452890942092317e1 2.483744511941884e1 2.514986171924664e1 2.546620803613582e1
      2.578653349984210e1 2.611088816187078e1 2.643932270329779e1 2.677188844268844e1
      2.710863734411605e1 2.744962202528167e1 2.779489576573538e1 2.814451251520165e1
      2.849852690200892e1 2.885699424162528e1 2.921997054530197e1 2.958751252882479e1
      2.995967762137651e1 3.033652397451005e1 3.071811047123469e1 3.110449673521701e1
      3.149574314009673e1 3.189191081892068e1 3.229306167369475e1 3.269925838505601e1
      3.311056442206715e1 3.352704405213315e1 3.394876235104360e1 3.437578521314075e1
      3.480817936161547e1 3.524601235893330e1 3.568935261739071e1 3.613826940980516e1
      3.659283288033881e1 3.705311405545867e1 3.751918485503489e1 3.799111810357802e1
      3.846898754161837e1 3.895286783722792e1 3.944283459768720e1 3.993896438129951e1
      4.044133470935278e1 4.095002407823293e1 4.146511197168883e1 4.198667887325167e1
      4.251480627881108e1 4.304957670934853e1 4.359107372383187e1 4.413938193227135e1
      4.469458700893995e1 4.525677570576061e1 4.582603586586085e1 4.640245643729893e1
      4.698612748696194e1 4.757714021463872e1 4.817558696727057e1 4.878156125337997e1
      4.939515775768207e1 5.001647235587910e1 5.064560212964098e1 5.128264538177497e1
      5.192770165158513e1 5.258087173042608e1 5.324225767745160e1 5.391196283556137e1
      5.459009184754901e1 5.527675067245215e1 5.597204660210927e1 5.667608827792409e1
      5.738898570784064e1 5.811085028353293e1 5.884179479780936e1 5.958193346223752e1
      6.033138192498964e1 6.109025728891258e1 6.185867812982613e1 6.263676451504979e1
      6.342463802216443e1 6.422242175800858e1 6.503024037791381e1 6.584822010518329e1
      6.667648875081331e1 6.751517573346502e1 6.836441209968591e1 6.922433054438571e1
      7.009506543157119e1 7.097675281533975e1 7.186953046113904e1 7.277353786729271e1
      7.368891628679691e1 7.461580874939234e1 7.555436008391175e1 7.650471694091083e1
      7.746702781558210e1 7.844144307095732e1 7.942811496140287e1 8.042719765640875e1