<UPF version="2.0.1">
  <PP_INFO><![CDATA[
Generated using "atomic" code by A. Dal Corso  v.6.6
Author: ADC
Generation date: 20May2021
Pseudopotential type: USPP
Element: Ti
Functional: PBE
    Suggested minimum cutoff for wavefunctions:  52. Ry
    Suggested minimum cutoff for charge density: 575. Ry
    The Pseudo was generated with a Fully-Relativistic Calculation
    Local Potential by smoothing AE potential with Bessel fncs, cutoff radius:   1.6000
    Pseudopotential contains additional information for spin-orbit calculations.
    Valence configuration:
    nl pn  l   occ       Rcut    Rcut US       E pseu
    3S  1  0  2.00      0.850      1.300    -4.601188
    4S  2  0  2.00      0.850      1.300    -0.328084
    3P  2  1  2.00      0.800      1.600    -2.886582
    3P  2  1  4.00      0.800      1.600    -2.838247
    3D  3  2  2.00      0.800      1.500    -0.314093
    3D  3  2  0.00      0.800      1.500    -0.310719
    Generation configuration:
    3S  1  0  2.00      0.850      1.300    -4.601190
    4S  2  0  2.00      0.850      1.300    -0.328087
    3P  2  1  2.00      0.800      1.600    -2.886582
    3P  2  1  4.00      0.800      1.600    -2.838245
    4P  3  1  0.00      0.800      1.600     4.000000
    4P  3  1  0.00      0.800      1.600     4.000000
    3D  3  2  2.00      0.800      1.500    -0.314101
    3D  3  2  0.00      0.800      1.500    -0.310713
    3D  3  2  0.00      0.800      1.500     0.050000
    3D  3  2  0.00      0.800      1.500     0.050000
    Pseudization used: troullier-martins
]]>
    <PP_INPUTFILE><![CDATA[
 &input
   title='Ti',
   zed=22.,
   rel=2,
   config='[Ar] 4s2 4p0 3d2',
   iswitch=3,
   dft='PBE'
 /
 &inputp
   lpaw=.false.,
   pseudotype=3,
   file_pseudopw='Ti.rel-pbe-spn-rrkjus_psl.1.0.0.UPF',
   author='ADC',
   lloc=-1,
   rcloc=1.6,
   which_augfun='PSQ',
   rmatch_augfun_nc=.true.,
   nlcc=.true.,
   new_core_ps=.true.,
   rcore=0.8,
   tm=.true.
 /
6
3S  1  0  2.00  0.00  0.85  1.30  0.0
4S  2  0  2.00  0.00  0.85  1.30  0.0
3P  2  1  6.00  0.00  0.80  1.60  0.0
4P  3  1  0.00  4.00  0.80  1.60  0.0
3D  3  2  2.00  0.00  0.80  1.50  0.0
3D  3  2  0.00  0.05  0.80  1.50  0.0
]]></PP_INPUTFILE>
  </PP_INFO>
  <!--
 END OF HUMAN READABLE SECTION 
-->
  <PP_HEADER generated="Generated using &quot;atomic&quot; code by A. Dal Corso  v.6.6" author="ADC" date="20May2021" comment="" element="Ti" pseudo_type="USPP" relativistic="full" is_ultrasoft="true" is_paw="false" is_coulomb="false" has_so="true" has_wfc="false" has_gipaw="false" paw_as_gipaw="false" core_correction="true" functional="PBE" z_valence="1.200000000000e1" total_psenergy="-1.192525159938e2" wfc_cutoff="5.169007046891e1" rho_cutoff="5.754633777033e2" l_max="2" l_max_rho="4" l_local="-1" mesh_size="1177" number_of_wfc="6" number_of_proj="10"/>
  <PP_MESH dx="1.250000000000e-2" mesh="1177" xmin="-7.000000000000e0" rmax="1.000000000000e2" zmesh="2.200000000000e1">
    <PP_R>
      4.144918025247801e-5 4.197054675768283e-5 4.249847124620828e-5 4.303303620732973e-5
      4.357432516791000e-5 4.412242270545041e-5 4.467741446130630e-5 4.523938715406870e-5
      4.580842859311412e-5 4.638462769232521e-5 4.696807448398350e-5 4.755886013283721e-5
      4.815707695034591e-5 4.876281840910440e-5 4.937617915744808e-5 4.999725503424174e-5
      5.062614308385470e-5 5.126294157132421e-5 5.190774999770943e-5 5.256066911563899e-5
      5.322180094505338e-5 5.389124878914604e-5 5.456911725050460e-5 5.525551224745521e-5
      5.595054103061276e-5 5.665431219963861e-5 5.736693572020974e-5 5.808852294120110e-5
      5.881918661208401e-5 5.955904090054363e-5 6.030820141031779e-5 6.106678519926030e-5
      6.183491079763153e-5 6.261269822661895e-5 6.340026901709085e-5 6.419774622858553e-5
      6.500525446853976e-5 6.582291991175890e-5 6.665087032013196e-5 6.748923506259485e-5
      6.833814513534420e-5 6.919773318230598e-5 7.006813351586139e-5 7.094948213783328e-5
      7.184191676073715e-5 7.274557682929839e-5 7.366060354224122e-5 7.458713987435117e-5
      7.552533059881517e-5 7.647532230984277e-5 7.743726344557155e-5 7.841130431126100e-5
      7.939759710277816e-5 8.039629593037821e-5 8.140755684278499e-5 8.243153785157343e-5
      8.346839895585942e-5 8.451830216730004e-5 8.558141153540808e-5 8.665789317318529e-5
      8.774791528307770e-5 8.885164818325759e-5 8.996926433423623e-5 9.110093836581088e-5
      9.224684710435154e-5 9.340716960042995e-5 9.458208715679678e-5 9.577178335671064e-5
      9.697644409262310e-5 9.819625759522520e-5 9.943141446285841e-5 1.006821076912962e-4
      1.019485327039001e-4 1.032308873821548e-4 1.045293720965880e-4 1.058441897380779e-4
      1.071755457495560e-4 1.085236481581079e-4 1.098887076074774e-4 1.112709373909811e-4
      1.126705534848345e-4 1.140877745818999e-4 1.155228221258572e-4 1.169759203458045e-4
      1.184472962912954e-4 1.199371798678146e-4 1.214458038727023e-4 1.229734040315285e-4
      1.245202190349258e-4 1.260864905758859e-4 1.276724633875233e-4 1.292783852813167e-4
      1.309045071858292e-4 1.325510831859167e-4 1.342183705624294e-4 1.359066298324118e-4
      1.376161247898098e-4 1.393471225466883e-4 1.410998935749686e-4 1.428747117486900e-4
      1.446718543868030e-4 1.464916022965012e-4 1.483342398170977e-4 1.502000548644538e-4
      1.520893389759669e-4 1.540023873561233e-4 1.559394989226243e-4 1.579009763530933e-4
      1.598871261323695e-4 1.618982586003968e-4 1.639346880007150e-4 1.659967325295611e-4
      1.680847143855878e-4 1.701989598202082e-4 1.723397991885731e-4 1.745075670011893e-4
      1.767026019761877e-4 1.789252470922492e-4 1.811758496421950e-4 1.834547612872527e-4
      1.857623381120030e-4 1.880989406800198e-4 1.904649340902082e-4 1.928606880338518e-4
      1.952865768523790e-4 1.977429795958531e-4 2.002302800822003e-4 2.027488669571819e-4
      2.052991337551211e-4 2.078814789603942e-4 2.104963060696930e-4 2.131440236550732e-4
      2.158250454277945e-4 2.185397903029629e-4 2.212886824649893e-4 2.240721514338660e-4
      2.268906321322826e-4 2.297445649535825e-4 2.326343958305750e-4 2.355605763052147e-4
      2.385235635991538e-4 2.415238206851853e-4 2.445618163595828e-4 2.476380253153511e-4
      2.507529282163987e-4 2.539070117726409e-4 2.571007688160504e-4 2.603346983776630e-4
      2.636093057655518e-4 2.669251026437842e-4 2.702826071123679e-4 2.736823437882072e-4
      2.771248438870744e-4 2.806106453066137e-4 2.841402927103891e-4 2.877143376129885e-4
      2.913333384661993e-4 2.949978607462676e-4 2.987084770422551e-4 3.024657671455079e-4
      3.062703181402485e-4 3.101227244953104e-4 3.140235881570242e-4 3.179735186432733e-4
      3.219731331387330e-4 3.260230565913045e-4 3.301239218097678e-4 3.342763695626561e-4
      3.384810486783790e-4 3.427386161466034e-4 3.470497372209074e-4 3.514150855227305e-4
      3.558353431466260e-4 3.603112007668407e-4 3.648433577452346e-4 3.694325222405551e-4
      3.740794113190923e-4 3.787847510667186e-4 3.835492767023423e-4 3.883737326927884e-4
      3.932588728691197e-4 3.982054605444285e-4 4.032142686331026e-4 4.082860797715962e-4
      4.134216864407193e-4 4.186218910894609e-4 4.238875062603785e-4 4.292193547165550e-4
      4.346182695701592e-4 4.400850944126224e-4 4.456206834464467e-4 4.512259016186824e-4
      4.569016247560721e-4 4.626487397019031e-4 4.684681444545796e-4 4.743607483079320e-4
      4.803274719933025e-4 4.863692478234058e-4 4.924870198380068e-4 4.986817439514312e-4
      5.049543881019231e-4 5.113059324028938e-4 5.177373692960625e-4 5.242497037065281e-4
      5.308439531997934e-4 5.375211481407554e-4 5.442823318547100e-4 5.511285607903682e-4
      5.580609046849290e-4 5.650804467312315e-4 5.721882837469999e-4 5.793855263462304e-4
      5.866732991127215e-4 5.940527407757945e-4 6.015250043882245e-4 6.090912575064013e-4
      6.167526823727697e-4 6.245104761005519e-4 6.323658508608009e-4 6.403200340718062e-4
      6.483742685908753e-4 6.565298129085400e-4 6.647879413451919e-4 6.731499442502001e-4
      6.816171282035326e-4 6.901908162199066e-4 6.988723479555197e-4 7.076630799173678e-4
      7.165643856752039e-4 7.255776560761646e-4 7.347042994620853e-4 7.439457418895648e-4
      7.533034273527845e-4 7.627788180091343e-4 7.723733944076856e-4 7.820886557205173e-4
      7.919261199769779e-4 8.018873243008709e-4 8.119738251506380e-4 8.221871985625597e-4
      8.325290403970081e-4 8.430009665878130e-4 8.536046133947458e-4 8.643416376591937e-4
      8.752137170630423e-4 8.862225503908181e-4 8.973698577951266e-4 9.086573810654286e-4
      9.200868839001997e-4 9.316601521825119e-4 9.433789942590792e-4 9.552452412228195e-4
      9.672607471989625e-4 9.794273896347626e-4 9.917470695928532e-4 1.004221712048293e-3
      1.016853266189346e-3 1.029643705722044e-3 1.042595029178588e-3 1.055709260229617e-3
      1.068988448000414e-3 1.082434667391085e-3 1.096050019400767e-3 1.109836631455911e-3
      1.123796657742700e-3 1.137932279543643e-3 1.152245705578407e-3 1.166739172348929e-3
      1.181414944488880e-3 1.196275315117514e-3 1.211322606197976e-3 1.226559168900113e-3
      1.241987383967844e-3 1.257609662091163e-3 1.273428444282810e-3 1.289446202259686e-3
      1.305665438829065e-3 1.322088688279658e-3 1.338718516777604e-3 1.355557522767441e-3
      1.372608337378114e-3 1.389873624834095e-3 1.407356082871677e-3 1.425058443160495e-3
      1.442983471730361e-3 1.461133969403457e-3 1.479512772231974e-3 1.498122751941244e-3
      1.516966816378458e-3 1.536047909967025e-3 1.555369014166638e-3 1.574933147939138e-3
      1.594743368220229e-3 1.614802770397135e-3 1.635114488792258e-3 1.655681697152920e-3
      1.676507609147273e-3 1.697595478866437e-3 1.718948601332959e-3 1.740570313015666e-3
      1.762463992351000e-3 1.784633060270901e-3 1.807080980737333e-3 1.829811261283538e-3
      1.852827453562101e-3 1.876133153899889e-3 1.899732003859996e-3 1.923627690810742e-3
      1.947823948501827e-3 1.972324557647745e-3 1.997133346518519e-3 2.022254191537887e-3
      2.047691017888992e-3 2.073447800127700e-3 2.099528562803642e-3 2.125937381089044e-3
      2.152678381415496e-3 2.179755742118703e-3 2.207173694091362e-3 2.234936521444254e-3
      2.263048562175634e-3 2.291514208849063e-3 2.320337909279746e-3 2.349524167229519e-3
      2.379077543110563e-3 2.409002654697991e-3 2.439304177851370e-3 2.469986847245341e-3
      2.501055457109421e-3 2.532514861977109e-3 2.564369977444425e-3 2.596625780937968e-3
      2.629287312492658e-3 2.662359675539252e-3 2.695848037701760e-3 2.729757631604906e-3
      2.764093755691726e-3 2.798861775051465e-3 2.834067122257884e-3 2.869715298218108e-3
      2.905811873032162e-3 2.942362486863298e-3 2.979372850819289e-3 3.016848747844802e-3
      3.054796033624989e-3 3.093220637500464e-3 3.132128563393754e-3 3.171525890747440e-3
      3.211418775474074e-3 3.251813450918055e-3 3.292716228829612e-3 3.334133500351006e-3
      3.376071737015178e-3 3.418537491756929e-3 3.461537399936833e-3 3.505078180378032e-3
      3.549166636416052e-3 3.593809656961850e-3 3.639014217578208e-3 3.684787381569693e-3
      3.731136301086309e-3 3.778068218241026e-3 3.825590466241382e-3 3.873710470535313e-3
      3.922435749971386e-3 3.971773917973654e-3 4.021732683731241e-3 4.072319853402942e-3
      4.123543331336935e-3 4.175411121305858e-3 4.227931327757431e-3 4.281112157080758e-3
      4.334961918888620e-3 4.389489027315857e-3 4.444702002334093e-3 4.500609471083014e-3
      4.557220169218351e-3 4.614542942276867e-3 4.672586747058475e-3 4.731360653025757e-3
      4.790873843721107e-3 4.851135618201646e-3 4.912155392492242e-3 4.973942701056772e-3
      5.036507198287908e-3 5.099858660015624e-3 5.164006985034717e-3 5.228962196651475e-3
      5.294734444249865e-3 5.361334004877389e-3 5.428771284850892e-3 5.497056821382577e-3
      5.566201284226452e-3 5.636215477345513e-3 5.707110340599877e-3 5.778896951456163e-3
      5.851586526718375e-3 5.925190424280532e-3 5.999720144901376e-3 6.075187334001386e-3
      6.151603783482395e-3 6.228981433570112e-3 6.307332374679786e-3 6.386668849305371e-3
      6.467003253932440e-3 6.548348140975149e-3 6.630716220737609e-3 6.714120363399857e-3
      6.798573601028869e-3 6.884089129614848e-3 6.970680311133113e-3 7.058360675631956e-3
      7.147143923346712e-3 7.237043926840469e-3 7.328074733171677e-3 7.420250566089017e-3
      7.513585828253935e-3 7.608095103491025e-3 7.703793159066827e-3 7.800694947997221e-3
      7.898815611383871e-3 7.998170480780069e-3 8.098775080586297e-3 8.200645130475948e-3
      8.303796547851581e-3 8.408245450332014e-3 8.514008158270775e-3 8.621101197306151e-3
      8.729541300943373e-3 8.839345413169259e-3 8.950530691099729e-3 9.063114507660689e-3
      9.177114454302520e-3 9.292548343748821e-3 9.409434212779672e-3 9.527790325049899e-3
      9.647635173942868e-3 9.768987485460029e-3 9.891866221146955e-3 1.001629058105609e-2
      1.014228000674681e-2 1.026985418432322e-2 1.039903304751011e-2 1.052983678076768e-2
      1.066228582244535e-2 1.079640086797537e-2 1.093220287310646e-2 1.106971305717822e-2
      1.120895290643666e-2 1.134994417739153e-2 1.149270890021575e-2 1.163726938218773e-2
      1.178364821117689e-2 1.193186825917306e-2 1.208195268586031e-2 1.223392494223563e-2
      1.238780877427330e-2 1.254362822663515e-2 1.270140764642761e-2 1.286117168700605e-2
      1.302294531182682e-2 1.318675379834797e-2 1.335262274197877e-2 1.352057806007912e-2
      1.369064599600920e-2 1.386285312322997e-2 1.403722634945545e-2 1.421379292085699e-2
      1.439258042632061e-2 1.457361680175777e-2 1.475693033447044e-2 1.494254966757110e-2
      1.513050380445817e-2 1.532082211334793e-2 1.551353433186336e-2 1.570867057168066e-2
      1.590626132323434e-2 1.610633746048131e-2 1.630893024572508e-2 1.651407133450052e-2
      1.672179278052011e-2 1.693212704068241e-2 1.714510698014350e-2 1.736076587745223e-2
      1.757913742975007e-2 1.780025575803632e-2 1.802415541249968e-2 1.825087137791667e-2
      1.848043907911815e-2 1.871289438652449e-2 1.894827362175038e-2 1.918661356328025e-2
      1.942795145221485e-2 1.967232499809034e-2 1.991977238477044e-2 2.017033227641272e-2
      2.042404382351007e-2 2.068094666900790e-2 2.094108095449846e-2 2.120448732649312e-2
      2.147120694277339e-2 2.174128147882201e-2 2.201475313433467e-2 2.229166463981393e-2
      2.257205926324590e-2 2.285598081686095e-2 2.314347366397951e-2 2.343458272594383e-2
      2.372935348913710e-2 2.402783201209080e-2 2.433006493268138e-2 2.463609947541760e-2
      2.494598345881939e-2 2.525976530288963e-2 2.557749403667983e-2 2.589921930595105e-2
      2.622499138093122e-2 2.655486116416982e-2 2.688888019849161e-2 2.722710067505027e-2
      2.756957544148334e-2 2.791635801016991e-2 2.826750256659183e-2 2.862306397780046e-2
      2.898309780098972e-2 2.934766029217691e-2 2.971680841499307e-2 3.009059984958338e-2
      3.046909300161999e-2 3.085234701142795e-2 3.124042176322601e-2 3.163337789448373e-2
      3.203127680539608e-2 3.243418066847741e-2 3.284215243827604e-2 3.325525586121099e-2
      3.367355548553264e-2 3.409711667140827e-2 3.452600560113495e-2 3.496028928948050e-2
      3.540003559415477e-2 3.584531322641258e-2 3.629619176178988e-2 3.675274165097513e-2
      3.721503423081739e-2 3.768314173547274e-2 3.815713730769125e-2 3.863709501024538e-2
      3.912308983750265e-2 3.961519772714357e-2 4.011349557202706e-2 4.061806123220527e-2
      4.112897354708908e-2 4.164631234776719e-2 4.217015846947970e-2 4.270059376424890e-2
      4.323770111366882e-2 4.378156444185556e-2 4.433226872856061e-2 4.488990002244918e-2
      4.545454545454546e-2 4.602629325184703e-2 4.660523275111042e-2 4.719145441281025e-2
      4.778504983527386e-2 4.838611176899360e-2 4.899473413111963e-2 4.961101202013419e-2
      5.023504173071127e-2 5.086692076876278e-2 5.150674786667393e-2 5.215462299873057e-2
      5.281064739674015e-2 5.347492356584960e-2 5.414755530056176e-2 5.482864770095366e-2
      5.551830718909865e-2 5.621664152569479e-2 5.692375982690296e-2 5.763977258139638e-2
      5.836479166762460e-2 5.909893037129505e-2 5.984230340307373e-2 6.059502691650924e-2
      6.135721852618201e-2 6.212899732608166e-2 6.291048390821597e-2 6.370180038145335e-2
      6.450307039060265e-2 6.531441913573298e-2 6.613597339173642e-2 6.696786152813708e-2
      6.781021352914868e-2 6.866316101398517e-2 6.952683725742635e-2 7.040137721064243e-2
      7.128691752228042e-2 7.218359655981565e-2 7.309155443117199e-2 7.401093300661414e-2
      7.494187594091493e-2 7.588452869580196e-2 7.683903856268599e-2 7.780555468567569e-2
      7.878422808488166e-2 7.977521168001357e-2 8.077866031427449e-2 8.179473077855498e-2
      8.282358183593228e-2 8.386537424647733e-2 8.492027079237374e-2 8.598843630335319e-2
      8.707003768244984e-2 8.816524393207978e-2 8.927422618044766e-2 9.039715770828598e-2
      9.153421397593076e-2 9.268557265073708e-2 9.385141363484035e-2 9.503191909326624e-2
      9.622727348239430e-2 9.743766357877998e-2 9.866327850833832e-2 9.990430977589559e-2
      1.011609512951122e-1 1.024333994187822e-1 1.037218529695138e-1 1.050265132707957e-1
      1.063475841784542e-1 1.076852721125064e-1 1.090397860894135e-1 1.104113377547404e-1
      1.118001414162250e-1 1.132064140772651e-1 1.146303754708250e-1 1.160722480937694e-1
      1.175322572416294e-1 1.190106310438046e-1 1.205076004992094e-1 1.220233995123669e-1
      1.235582649299566e-1 1.251124365778231e-1 1.266861572984478e-1 1.282796729888954e-1
      1.298932326392348e-1 1.315270883714437e-1 1.331814954788048e-1 1.348567124657940e-1
      1.365530010884742e-1 1.382706263953939e-1 1.400098567690014e-1 1.417709639675816e-1
      1.435542231677168e-1 1.453599130072852e-1 1.471883156289983e-1 1.490397167244851e-1
      1.509144055789342e-1 1.528126751162923e-1 1.547348219450372e-1 1.566811464045217e-1
      1.586519526119019e-1 1.606475485096579e-1 1.626682459137082e-1 1.647143605621337e-1
      1.667862121645112e-1 1.688841244518684e-1 1.710084252272688e-1 1.731594464170301e-1
      1.753375241225897e-1 1.775429986730207e-1 1.797762146782081e-1 1.820375210826968e-1
      1.843272712202126e-1 1.866458228688732e-1 1.889935383070914e-1 1.913707843701800e-1
      1.937779325076737e-1 1.962153588413656e-1 1.986834442240799e-1 2.011825742991790e-1
      2.037131395608211e-1 2.062755354149776e-1 2.088701622412132e-1 2.114974254552486e-1
      2.141577355723066e-1 2.168515082712546e-1 2.195791644595583e-1 2.223411303390457e-1
      2.251378374725052e-1 2.279697228511165e-1 2.308372289627310e-1 2.337408038610133e-1
      2.366809012354477e-1 2.396579804822314e-1 2.426725067760536e-1 2.457249511427803e-1
      2.488157905330548e-1 2.519455078968193e-1 2.551145922587797e-1 2.583235387948158e-1
      2.615728489093514e-1 2.648630303137036e-1 2.681945971054099e-1 2.715680698485601e-1
      2.749839756551341e-1 2.784428482673631e-1 2.819452281411305e-1 2.854916625304167e-1
      2.890827055728104e-1 2.927189183760938e-1 2.964008691059142e-1 3.001291330745652e-1
      3.039042928308760e-1 3.077269382512397e-1 3.115976666317810e-1 3.155170827816835e-1
      3.194857991176955e-1 3.235044357598180e-1 3.275736206282029e-1 3.316939895412653e-1
      3.358661863150296e-1 3.400908628637312e-1 3.443686793016749e-1 3.487003040463831e-1
      3.530864139230354e-1 3.575276942702224e-1 3.620248390470355e-1 3.665785509414943e-1
      3.711895414803475e-1 3.758585311402488e-1 3.805862494603302e-1 3.853734351561991e-1
      3.902208362353589e-1 3.951292101140909e-1 4.000993237358006e-1 4.051319536908517e-1
      4.102278863379150e-1 4.153879179268331e-1 4.206128547230405e-1 4.259035131335425e-1
      4.312607198344784e-1 4.366853119002959e-1 4.421781369345403e-1 4.477400532022991e-1
      4.533719297643058e-1 4.590746466127297e-1 4.648490948086822e-1 4.706961766214407e-1
      4.766168056694350e-1 4.826119070630005e-1 4.886824175489252e-1 4.948292856568250e-1
      5.010534718473457e-1 5.073559486622439e-1 5.137377008763449e-1 5.201997256514145e-1
      5.267430326919729e-1 5.333686444030552e-1 5.400775960499725e-1 5.468709359200700e-1
      5.537497254865214e-1 5.607150395741939e-1 5.677679665275824e-1 5.749096083808737e-1
      5.821410810301383e-1 5.894635144076878e-1 5.968780526586377e-1 6.043858543196722e-1
      6.119880925000777e-1 6.196859550650347e-1 6.274806448212315e-1 6.353733797048021e-1
      6.433653929716277e-1 6.514579333900431e-1 6.596522654359511e-1 6.679496694904064e-1
      6.763514420396750e-1 6.848588958778087e-1 6.934733603117809e-1 7.021961813691830e-1
      7.110287220085532e-1 7.199723623323378e-1 7.290284998025307e-1 7.381985494590389e-1
      7.474839441407756e-1 7.568861347095520e-1 7.664065902767749e-1 7.760467984329936e-1
      7.858082654803483e-1 7.956925166679223e-1 8.057010964300748e-1 8.158355686277570e-1
      8.260975167928667e-1 8.364885443756851e-1 8.470102749954098e-1 8.576643526938582e-1
      8.684524421923484e-1 8.793762291518100e-1 8.904374204361826e-1 9.016377443791061e-1
      9.129789510539849e-1 9.244628125474376e-1 9.360911232361834e-1 9.478657000674289e-1
      9.597883828427559e-1 9.718610345056064e-1 9.840855414323670e-1 9.964638137271123e-1
      1.008997785520076e0 1.021689415269847e0 1.034540686069397e0 1.047553605955936e0
      1.060730208224669e0 1.074072551746511e0 1.087582721289779e0 1.101262827845954e0
      1.115115008959517e0 1.129141429061948e0 1.143344279809927e0 1.157725780427777e0
      1.172288178054230e0 1.187033748093545e0 1.201964794571037e0 1.217083650493098e0
      1.232392678211723e0 1.247894269793641e0 1.263590847394077e0 1.279484863635212e0
      1.295578801989423e0 1.311875177167320e0 1.328376535510679e0 1.345085455390317e0
      1.362004547608956e0 1.379136455809180e0 1.396483856886497e0 1.414049461407621e0
      1.431836014033999e0 1.449846293950659e0 1.468083115300487e0 1.486549327623917e0
      1.505247816304196e0 1.524181503018226e0 1.543353346193071e0 1.562766341468238e0
      1.582423522163730e0 1.602327959754025e0 1.622482764347996e0 1.642891085174861e0
      1.663556111076274e0 1.684481071004573e0 1.705669234527318e0 1.727123912338173e0
      1.748848456774188e0 1.770846262339637e0 1.793120766236389e0 1.815675448900997e0
      1.838513834548520e0 1.861639491723173e0 1.885056033855946e0 1.908767119829182e0
      1.932776454548308e0 1.957087789520726e0 1.981704923441978e0 2.006631702789331e0
      2.031872022422766e0 2.057429826193580e0 2.083309107560614e0 2.109513910214226e0
      2.136048328708152e0 2.162916509099259e0 2.190122649595401e0 2.217671001211384e0
      2.245565868433190e0 2.273811609890582e0 2.302412639038121e0 2.331373424844805e0
      2.360698492492340e0 2.390392424082203e0 2.420459859351622e0 2.450905496398526e0
      2.481734092415647e0 2.512950464433840e0 2.544559490074734e0 2.576566108312903e0
      2.608975320247556e0 2.641792189883999e0 2.675021844924884e0 2.708669477571409e0
      2.742740345334639e0 2.777239771856971e0 2.812173147743995e0 2.847545931406769e0
      2.883363649914697e0 2.919631899859180e0 2.956356348228046e0 2.993542733291077e0
      3.031196865496601e0 3.069324628379370e0 3.107931979479919e0 3.147024951275393e0
      3.186609652122175e0 3.226692267210315e0 3.267279059529958e0 3.308376370849988e0
      3.349990622708902e0 3.392128317418223e0 3.434796039078485e0 3.478000454607995e0
      3.521748314784590e0 3.566046455300416e0 3.610901797830060e0 3.656321351112060e0
      3.702312212044006e0 3.748881566791505e0 3.796036691910967e0 3.843784955486636e0
      3.892133818281848e0 3.941090834904768e0 3.990663654988860e0 4.040860024388106e0
      4.091687786387355e0 4.143154882927838e0 4.195269355848086e0 4.248039348140534e0
      4.301473105223825e0 4.355578976231222e0 4.410365415315156e0 4.465840982968185e0
      4.522014347360634e0 4.578894285694960e0 4.636489685577259e0 4.694809546405948e0
      4.753862980777919e0 4.813659215912455e0 4.874207595092934e0 4.935517579126800e0
      4.997598747823800e0 5.060460801492834e0 5.124113562457697e0 5.188566976591774e0
      5.253831114872167e0 5.319916174953269e0 5.386832482760152e0 5.454590494102071e0
      5.523200796306135e0 5.592674109871661e0 5.663021290145248e0 5.734253329016917e0
      5.806381356637683e0 5.879416643158589e0 5.953370600491755e0 6.028254784093485e0
      6.104080894769797e0 6.180860780504778e0 6.258606438311760e0 6.337330016107962e0
      6.417043814612591e0 6.497760289268819e0 6.579492052190052e0 6.662251874130508e0
      6.746052686480755e0 6.830907583288226e0 6.916829823303164e0 7.003832832050406e0
      7.091930203927050e0 7.181135704326703e0 7.271463271790304e0 7.362927020184016e0
      7.455541240904636e0 7.549320405112550e0 7.644279165992975e0 7.740432361045507e0
      7.837795014402470e0 7.936382339176566e0 8.036209739837838e0 8.137292814620757e0
      8.239647357961426e0 8.343289362965454e0 8.448235023907015e0 8.554500738759113e0
      8.662103111755910e0 8.771058955987117e0 8.881385296025043e0 8.993099370584806e0
      9.106218635217811e0 9.220760765039314e0 9.336743657490153e0 9.454185435133210e0
      9.573104448485216e0 9.693519278883912e0 9.815448741391551e0 9.938911887734735e0
      1.006392800928124e1 1.019051664005442e1 1.031869755978537e1 1.044849079700358e1
      1.057991663216647e1 1.071299560082812e1 1.084774849684818e1 1.098419637564076e1
      1.112236055746456e1 1.126226263075411e1 1.140392445549294e1 1.154736816662942e1
      1.169261617753523e1 1.183969118350758e1 1.198861616531542e1 1.213941439279010e1
      1.229210942846150e1 1.244672513123957e1 1.260328566014246e1 1.276181547807134e1
      1.292233935563277e1 1.308488237500924e1 1.324946993387819e1 1.341612774938056e1
      1.358488186213912e1 1.375575864032727e1 1.392878478378930e1 1.410398732821211e1
      1.428139364934974e1 1.446103146730082e1 1.464292885083984e1 1.482711422180311e1
      1.501361635952950e1 1.520246440535750e1 1.539368786717853e1 1.558731662404747e1
      1.578338093085160e1 1.598191142303767e1 1.618293912139905e1 1.638649543692262e1
      1.659261217569677e1 1.680132154388133e1 1.701265615273964e1 1.722664902373434e1
      1.744333359368692e1 1.766274372000222e1 1.788491368595893e1 1.810987820606618e1
      1.833767243148796e1 1.856833195553548e1 1.880189281922858e1 1.903839151692747e1
      1.927786500203475e1 1.952035069276972e1 1.976588647801494e1 2.001451072323631e1
      2.026626227647807e1 2.052118047443253e1 2.077930514858677e1 2.104067663144634e1
      2.130533576283713e1 2.157332389628695e1 2.184468290548679e1 2.211945519083396e1
      2.239768368605712e1 2.267941186492464e1 2.296468374803771e1 2.325354390970837e1
      2.354603748492464e1 2.384221017640275e1 2.414210826172823e1 2.444577860058716e1
      2.475326864208770e1 2.506462643217449e1 2.537990062113573e1 2.569914047120478e1
      2.602239586425782e1 2.634971730960757e1 2.668115595189586e1 2.701676357908492e1
      2.735659263054919e1 2.770069620526946e1 2.804912807012926e1 2.840194266831641e1
      2.875919512782973e1 2.912094127009277e1 2.948723761867632e1 2.985814140813000e1
      3.023371059292554e1 3.061400385651225e1 3.099908062048616e1 3.138900105387520e1
      3.178382608254026e1 3.218361739869543e1 3.258843747054727e1 3.299834955205552e1
      3.341341769281700e1 3.383370674807305e1 3.425928238884369e1 3.469021111218872e1
      3.512656025159773e1 3.556839798751167e1 3.601579335797555e1 3.646881626942632e1
      3.692753750761563e1 3.739202874867011e1 3.786236257029131e1 3.833861246309562e1
      3.882085284209780e1 3.930915905833826e1 3.980360741065663e1 4.030427515761406e1
      4.081124052956447e1 4.132458274087874e1 4.184438200232186e1 4.237071953358583e1
      4.290367757598090e1 4.344333940528535e1 4.398978934475803e1 4.454311277831382e1
      4.510339616386483e1 4.567072704683008e1 4.624519407381415e1 4.682688700645881e1
      4.741589673546836e1 4.801231529481115e1 4.861623587610064e1 4.922775284315620e1
      4.984696174674812e1 5.047395933952751e1 5.110884359114366e1 5.175171370355279e1
      5.240267012651767e1 5.306181457330388e1 5.372925003657237e1 5.440508080447199e1
      5.508941247693539e1 5.578235198217850e1 5.648400759340891e1 5.719448894574349e1
      5.791390705333882e1 5.864237432673811e1 5.938000459043468e1 6.012691310065807e1
      6.088321656338270e1 6.164903315256311e1 6.242448252859965e1 6.320968585703477e1
      6.400476582748617e1 6.480984667281692e1 6.562505418854684e1 6.645051575250907e1
      6.728636034475212e1 6.813271856769418e1 6.898972266652969e1 6.985750654989238e1
      7.073620581077982e1 7.162595774773902e1 7.252690138632042e1 7.343917750080070e1
      7.436292863617850e1 7.529829913044842e1 7.624543513715288e1 7.720448464822010e1
      7.817559751708747e1 7.915892548211623e1 8.015462219030180e1 8.116284322128031e1
      8.218374611163924e1 8.321749037953238e1 8.426423754960448e1 8.532415117823076e1
      8.639739687907186e1 8.748414234895215e1 8.858455739406249e1 8.969881395649219e1
      9.082708614109640e1 9.196955024269915e1 9.312638477364080e1 9.429777049167061e1
      9.548389042818989e1 9.668492991685222e1 9.790107662252090e1 9.913252057059317e1
      1.003794541766914e2
      </PP_R>
    <PP_RAB>
      5.181147531559751e-7 5.246318344710355e-7 5.312308905776035e-7 5.379129525916216e-7
      5.446790645988751e-7 5.515302838181301e-7 5.584676807663288e-7 5.654923394258588e-7
      5.726053574139264e-7 5.798078461540651e-7 5.871009310497938e-7 5.944857516604651e-7
      6.019634618793241e-7 6.095352301138051e-7 6.172022394681011e-7 6.249656879280217e-7
      6.328267885481837e-7 6.407867696415526e-7 6.488468749713679e-7 6.570083639454873e-7
      6.652725118131673e-7 6.736406098643255e-7 6.821139656313075e-7 6.906939030931901e-7
      6.993817628826598e-7 7.081789024954826e-7 7.170866965026221e-7 7.261065367650142e-7
      7.352398326510501e-7 7.444880112567954e-7 7.538525176289724e-7 7.633348149907542e-7
      7.729363849703940e-7 7.826587278327369e-7 7.925033627136356e-7 8.024718278573191e-7
      8.125656808567470e-7 8.227864988969863e-7 8.331358790016495e-7 8.436154382824355e-7