<UPF version="2.0.1">
  <PP_INFO><![CDATA[
Generated using "atomic" code by A. Dal Corso  v.6.6
Author: ADC
Generation date: 20May2021
Pseudopotential type: USPP
Element: Zn
Functional: PBE
    Suggested minimum cutoff for wavefunctions:  74. Ry
    Suggested minimum cutoff for charge density: 394. Ry
    The Pseudo was generated with a Fully-Relativistic Calculation
    Local Potential by smoothing AE potential with Bessel fncs, cutoff radius:   1.5000
    Pseudopotential contains additional information for spin-orbit calculations.
    Valence configuration:
    nl pn  l   occ       Rcut    Rcut US       E pseu
    3S  1  0  2.00      0.800      1.250    -9.495613
    4S  2  0  2.00      0.800      1.250    -0.439379
    3P  2  1  2.00      1.000      1.200    -6.279877
    3P  2  1  4.00      1.000      1.200    -6.054642
    3D  3  2  4.00      1.000      1.400    -0.761010
    3D  3  2  6.00      1.000      1.400    -0.734812
    Generation configuration:
    3S  1  0  2.00      0.800      1.250    -9.495614
    4S  2  0  2.00      0.800      1.250    -0.439379
    3P  2  1  2.00      1.000      1.200    -6.279878
    3P  2  1  4.00      1.000      1.200    -6.054643
    4P  3  1  0.00      1.000      1.200     7.000000
    4P  3  1  0.00      1.000      1.200     7.000000
    3D  3  2  4.00      1.000      1.400    -0.761010
    3D  3  2  6.00      1.000      1.400    -0.734807
    3D  3  2  0.00      1.000      1.400     0.050000
    3D  3  2  0.00      1.000      1.400     0.050000
    Pseudization used: troullier-martins
]]>
    <PP_INPUTFILE><![CDATA[
 &input
   title='Zn',
   zed=30.,
   rel=2,
   config='[Ar] 4s2 4p0 3d10',
   iswitch=3,
   dft='PBE'
 /
 &inputp
   lpaw=.false.,
   pseudotype=3,
   file_pseudopw='Zn.rel-pbe-spn-rrkjus_psl.1.0.0.UPF',
   author='ADC',
   lloc=-1,
   rcloc=1.5,
   which_augfun='PSQ',
   rmatch_augfun_nc=.true.,
   nlcc=.true.,
   new_core_ps=.true.,
   rcore=0.8,
   tm=.true.
 /
6
3S  1  0  2.00  0.00  0.80  1.25  0.0
4S  2  0  2.00  0.00  0.80  1.25  0.0
3P  2  1  6.00  0.00  1.00  1.20  0.0
4P  3  1  0.00  7.00  1.00  1.20  0.0
3D  3  2 10.00  0.00  1.00  1.40  0.0
3D  3  2  0.00  0.05  1.00  1.40  0.0
]]></PP_INPUTFILE>
  </PP_INFO>
  <!--
 END OF HUMAN READABLE SECTION 
-->
  <PP_HEADER generated="Generated using &quot;atomic&quot; code by A. Dal Corso  v.6.6" author="ADC" date="20May2021" comment="" element="Zn" pseudo_type="USPP" relativistic="full" is_ultrasoft="true" is_paw="false" is_coulomb="false" has_so="true" has_wfc="false" has_gipaw="false" paw_as_gipaw="false" core_correction="true" functional="PBE" z_valence="2.000000000000e1" total_psenergy="-4.540524612246e2" wfc_cutoff="7.419140395410e1" rho_cutoff="3.938313812456e2" l_max="2" l_max_rho="4" l_local="-1" mesh_size="1201" number_of_wfc="6" number_of_proj="10"/>
  <PP_MESH dx="1.250000000000e-2" mesh="1201" xmin="-7.000000000000e0" rmax="1.000000000000e2" zmesh="3.000000000000e1">
    <PP_R>
      3.039606551848387e-5 3.077840095563407e-5 3.116554558055273e-5 3.155755988537513e-5
      3.195450512313400e-5 3.235644331733029e-5 3.276343727162462e-5 3.317555057965038e-5
      3.359284763495034e-5 3.401539364103848e-5 3.444325462158790e-5 3.487649743074728e-5
      3.531518976358700e-5 3.575940016667656e-5 3.620919804879526e-5 3.666465369177728e-5
      3.712583826149345e-5 3.759282381897108e-5 3.806568333165358e-5 3.854449068480193e-5
      3.902932069303915e-5 3.952024911204043e-5 4.001735265037003e-5 4.052070898146715e-5
      4.103039675578270e-5 4.154649561306831e-5 4.206908619482048e-5 4.259825015688081e-5
      4.313407018219493e-5 4.367662999373200e-5 4.422601436756637e-5 4.478230914612423e-5
      4.534560125159647e-5 4.591597869952057e-5 4.649353061253329e-5 4.707834723429605e-5
      4.767051994359582e-5 4.827014126862318e-5 4.887730490143010e-5 4.949210571256955e-5
      5.011463976591908e-5 5.074500433369105e-5 5.138329791163168e-5 5.202962023441109e-5
      5.268407229120724e-5 5.334675634148547e-5 5.401777593097688e-5 5.469723590785753e-5
      5.538524243913113e-5 5.608190302721804e-5 5.678732652675246e-5 5.750162316159141e-5
      5.822490454203733e-5 5.895728368227735e-5 5.969887501804234e-5 6.044979442448718e-5
      6.121015923429692e-5 6.198008825602003e-5 6.275970179263259e-5 6.354912166033588e-5
      6.434847120759031e-5 6.515787533438889e-5 6.597746051177323e-5 6.680735480159463e-5
      6.764768787652446e-5 6.849859104031530e-5 6.936019724831764e-5 7.023264112825446e-5
      7.111605900125694e-5 7.201058890316514e-5 7.291637060609617e-5 7.383354564028389e-5
      7.476225731619345e-5 7.570265074691357e-5 7.665487287083119e-5 7.761907247459046e-5
      7.859540021634110e-5 7.958400864927912e-5 8.058505224548346e-5 8.159868742005276e-5
      8.262507255554530e-5 8.366436802672663e-5 8.471673622562861e-5 8.578234158692334e-5
      8.686135061361661e-5 8.795393190306406e-5 8.906025617331503e-5 9.018049628978755e-5
      9.131482729227896e-5 9.246342642231628e-5 9.362647315085042e-5 9.480414920629892e-5
      9.599663860294145e-5 9.720412766967225e-5 9.842680507911489e-5 9.966486187710199e-5
      1.009184915125272e-4 1.021878898675714e-4 1.034732552883103e-4 1.047747886157060e-4
      1.060926932169889e-4 1.074271750174342e-4 1.087784425325383e-4 1.101467069005994e-4
      1.115321819157090e-4 1.129350840611571e-4 1.143556325432578e-4 1.157940493256018e-4
      1.172505591637376e-4 1.187253896402910e-4 1.202187712005243e-4 1.217309371883448e-4
      1.232621238827644e-4 1.248125705348193e-4 1.263825194049536e-4 1.279722158008721e-4
      1.295819081158710e-4 1.312118478676494e-4 1.328622897376097e-4 1.345334916106520e-4
      1.362257146154689e-4 1.379392231653479e-4 1.396742849994860e-4 1.414311712248247e-4
      1.432101563584113e-4 1.450115183702923e-4 1.468355387269469e-4 1.486825024352667e-4
      1.505526980870889e-4 1.524464179042891e-4 1.543639577844415e-4 1.563056173470537e-4
      1.582716999803826e-4 1.602625128888395e-4 1.622783671409922e-4 1.643195777181684e-4
      1.663864635636739e-4 1.684793476326271e-4 1.705985569424217e-4 1.727444226238242e-4
      1.749172799727128e-4 1.771174685024692e-4 1.793453319970273e-4 1.816012185645909e-4
      1.838854806920257e-4 1.861984752999366e-4 1.885405637984369e-4 1.909121121436195e-4
      1.933134908947380e-4 1.957450752721084e-4 1.982072452157364e-4 2.007003854446853e-4
      2.032248855171880e-4 2.057811398915167e-4 2.083695479876187e-4 2.109905142495249e-4
      2.136444482085461e-4 2.163317645472629e-4 2.190528831643204e-4 2.218082292400391e-4
      2.245982333028489e-4 2.274233312965609e-4 2.302839646484844e-4 2.331805803384004e-4
      2.361136309684042e-4 2.390835748336233e-4 2.420908759938297e-4 2.451360043459479e-4
      2.482194356974779e-4 2.513416518408425e-4 2.545031406286654e-4 2.577043960500024e-4
      2.609459183075258e-4 2.642282138956831e-4 2.675517956798386e-4 2.709171829764070e-4
      2.743249016340010e-4 2.777754841155937e-4 2.812694695817177e-4 2.848074039747116e-4
      2.883898401040211e-4 2.920173377325809e-4 2.956904636642752e-4 2.994097918325039e-4
      3.031759033898608e-4 3.069893867989380e-4 3.108508379242775e-4 3.147608601254737e-4
      3.187200643514501e-4 3.227290692359231e-4 3.267885011940609e-4 3.308989945203671e-4
      3.350611914877861e-4 3.392757424480623e-4 3.435433059333582e-4 3.478645487591502e-4
      3.522401461284219e-4 3.566707817371642e-4 3.611571478812051e-4 3.656999455643829e-4
      3.702998846080768e-4 3.749576837621222e-4 3.796740708171126e-4 3.844497827181207e-4
      3.892855656798484e-4 3.941821753032205e-4 3.991403766934542e-4 4.041609445796034e-4
      4.092446634356145e-4 4.143923276029030e-4 4.196047414144665e-4 4.248827193205690e-4
      4.302270860159958e-4 4.356386765689161e-4 4.411183365513647e-4 4.466669221713610e-4
      4.522853004066977e-4 4.579743491404048e-4 4.637349572979206e-4 4.695680249859912e-4
      4.754744636333085e-4 4.814551961329293e-4 4.875111569864740e-4 4.936432924501466e-4
      4.998525606825906e-4 5.061399318945981e-4 5.125063885007144e-4 5.189529252727364e-4
      5.254805494951496e-4 5.320902811225208e-4 5.387831529388625e-4 5.455602107190143e-4
      5.524225133920417e-4 5.593711332066986e-4 5.664071558989694e-4 5.735316808617128e-4
      5.807458213164505e-4 5.880507044873053e-4 5.954474717771344e-4 6.029372789458771e-4
      6.105212962911393e-4 6.182007088310627e-4 6.259767164894804e-4 6.338505342834086e-4
      6.418233925128978e-4 6.498965369532666e-4 6.580712290497593e-4 6.663487461146476e-4
      6.747303815268130e-4 6.832174449338418e-4 6.918112624566580e-4 7.005131768967344e-4
      7.093245479459060e-4 7.182467523988256e-4 7.272811843680924e-4 7.364292555020814e-4
      7.456923952055201e-4 7.550720508628324e-4 7.645696880642977e-4 7.741867908350525e-4
      7.839248618669703e-4 7.937854227534626e-4 8.037700142272291e-4 8.138801964010012e-4
      8.241175490113132e-4 8.344836716653383e-4 8.449801840908314e-4 8.556087263892145e-4
      8.663709592918449e-4 8.772685644195104e-4 8.883032445451828e-4 8.994767238600829e-4
      9.107907482430855e-4 9.222470855335191e-4 9.338475258073942e-4 9.455938816571033e-4
      9.574879884746478e-4 9.695317047384160e-4 9.817269123035764e-4 9.940755166961237e-4
      1.006579447410617e-3 1.019240658211670e-3 1.032061127439230e-3 1.045042858317696e-3
      1.058187879268932e-3 1.071498244229202e-3 1.084976032970114e-3 1.098623351423579e-3
      1.112442332010869e-3 1.126435133975819e-3 1.140603943722201e-3 1.154950975155368e-3
      1.169478470028168e-3 1.184188698291232e-3 1.199083958447656e-3 1.214166577912141e-3
      1.229438913374667e-3 1.244903351168721e-3 1.260562307644169e-3 1.276418229544822e-3
      1.292473594390734e-3 1.308730910865327e-3 1.325192719207377e-3 1.341861591607929e-3
      1.358740132612207e-3 1.375830979526585e-3 1.393136802830664e-3 1.410660306594544e-3
      1.428404228901340e-3 1.446371342275012e-3 1.464564454113581e-3 1.482986407127784e-3
      1.501640079785260e-3 1.520528386760314e-3 1.539654279389338e-3 1.559020746131966e-3
      1.578630813038031e-3 1.598487544220383e-3 1.618594042333666e-3 1.638953449059119e-3
      1.659568945595464e-3 1.680443753155979e-3 1.701581133471814e-3 1.722984389301647e-3
      1.744656864947746e-3 1.766601946778527e-3 1.788823063757671e-3 1.811323687979917e-3
      1.834107335213575e-3 1.857177565449880e-3 1.880537983459245e-3 1.904192239354510e-3
      1.928144029161283e-3 1.952397095395452e-3 1.976955227647957e-3 2.001822263176932e-3
      2.027002087507265e-3 2.052498635037741e-3 2.078315889655782e-3 2.104457885359946e-3
      2.130928706890252e-3 2.157732490366418e-3 2.184873423934146e-3 2.212355748419522e-3
      2.240183757991658e-3 2.268361800833673e-3 2.296894279822086e-3 2.325785653214789e-3
      2.355040435347655e-3 2.384663197339907e-3 2.414658567808382e-3 2.445031233590738e-3
      2.475785940477797e-3 2.506927493955081e-3 2.538460759953677e-3 2.570390665610557e-3
      2.602722200038439e-3 2.635460415105356e-3 2.668610426224020e-3 2.702177413151108e-3
      2.736166620796627e-3 2.770583360043419e-3 2.805433008577014e-3 2.840721011725896e-3
      2.876452883312350e-3 2.912634206514013e-3 2.949270634736244e-3 2.986367892495490e-3
      3.023931776313752e-3 3.061968155624296e-3 3.100482973688783e-3 3.139482248525889e-3
      3.178972073851655e-3 3.218958620031629e-3 3.259448135045002e-3 3.300446945460877e-3
      3.341961457426791e-3 3.383998157669703e-3 3.426563614509548e-3 3.469664478885555e-3
      3.513307485395478e-3 3.557499453347873e-3 3.602247287827644e-3 3.647557980774966e-3
      3.693438612077799e-3 3.739896350678124e-3 3.786938455692126e-3 3.834572277544414e-3
      3.882805259116568e-3 3.931644936910086e-3 3.981098942223987e-3 4.031175002347223e-3
      4.081880941766064e-3 4.133224683386710e-3 4.185214249773244e-3 4.237857764401187e-3
      4.291163452926808e-3 4.345139644472390e-3 4.399794772927676e-3 4.455137378267683e-3
      4.511176107887090e-3 4.567919717951415e-3 4.625377074765177e-3 4.683557156157272e-3
      4.742469052883790e-3 4.802121970048442e-3 4.862525228540914e-3 4.923688266493229e-3
      4.985620640754504e-3 5.048332028384222e-3 5.111832228164283e-3 5.176131162130101e-3
      5.241238877120923e-3 5.307165546349678e-3 5.373921470992562e-3 5.441517081798613e-3
      5.509962940719552e-3 5.579269742560085e-3 5.649448316649006e-3 5.720509628531295e-3
      5.792464781681504e-3 5.865325019238716e-3 5.939101725763284e-3 6.013806429015696e-3
      6.089450801757826e-3 6.166046663576809e-3 6.243605982731902e-3 6.322140878024509e-3
      6.401663620691806e-3 6.482186636324122e-3 6.563722506806469e-3 6.646283972284506e-3
      6.729883933155183e-3 6.814535452082469e-3 6.900251756038425e-3 6.987046238369928e-3
      7.074932460891437e-3 7.163924156004021e-3 7.254035228841101e-3 7.345279759441132e-3
      7.437672004947661e-3 7.531226401837030e-3 7.625957568174082e-3 7.721880305896295e-3
      7.819009603126593e-3 7.917360636515270e-3 8.016948773611405e-3 8.117789575264025e-3
      8.219898798053555e-3 8.323292396753791e-3 8.427986526824881e-3 8.533997546937670e-3
      8.641342021529720e-3 8.750036723393581e-3 8.860098636297559e-3 8.971544957639463e-3
      9.084393101133756e-3 9.198660699532441e-3 9.314365607380248e-3 9.431525903804436e-3
      9.550159895339670e-3 9.670286118788512e-3 9.791923344117764e-3 9.915090577391357e-3
      1.003980706374008e-2 1.016609229036864e-2 1.029396598960066e-2 1.042344814196180e-2
      1.055455897930178e-2 1.068731898795570e-2 1.082174891194499e-2 1.095786975621881e-2
      1.109570278993599e-2 1.123526954978848e-2 1.137659184336646e-2 1.151969175256582e-2
      1.166459163703851e-2 1.181131413768630e-2 1.195988218019839e-2 1.211031897863372e-2
      1.226264803904808e-2 1.241689316316710e-2 1.257307845210524e-2 1.273122831013164e-2
      1.289136744848338e-2 1.305352088922663e-2 1.321771396916643e-2 1.338397234380556e-2
      1.355232199135331e-2 1.372278921678463e-2 1.389540065595028e-2 1.407018327973885e-2
      1.424716439829090e-2 1.442637166526625e-2 1.460783308216499e-2 1.479157700270266e-2
      1.497763213724072e-2 1.516602755727245e-2 1.535679269996554e-2 1.554995737276163e-2
      1.574555175803382e-2 1.594360641780280e-2 1.614415229851209e-2 1.634722073586355e-2
      1.655284345971366e-2 1.676105259903137e-2 1.697188068691831e-2 1.718536066569214e-2
      1.740152589203388e-2 1.762041014219992e-2 1.784204761729968e-2 1.806647294863957e-2
      1.829372120313422e-2 1.852382788878572e-2 1.875682896023187e-2 1.899276082436410e-2
      1.923166034601622e-2 1.947356485372453e-2 1.971851214556052e-2 1.996654049503686e-2
      2.021768865708778e-2 2.047199587412460e-2 2.072950188216734e-2 2.099024691705368e-2
      2.125427172072579e-2 2.152161754759640e-2 2.179232617099491e-2 2.206643988969447e-2
      2.234400153452132e-2 2.262505447504716e-2 2.290964262636574e-2 2.319781045595474e-2
      2.348960299062379e-2 2.378506582355010e-2 2.408424512140242e-2 2.438718763155473e-2
      2.469394068939060e-2 2.500455222569941e-2 2.531907077416563e-2 2.563754547895237e-2
      2.596002610238016e-2 2.628656303270256e-2 2.661720729197925e-2 2.695201054404843e-2
      2.729102510259942e-2 2.763430393934668e-2 2.798190069230691e-2 2.833386967417995e-2
      2.869026588083528e-2 2.905114499990529e-2 2.941656341948651e-2 2.978657823695053e-2
      3.016124726786533e-2 3.054062905502927e-2 3.092478287761845e-2 3.131376876044920e-2
      3.170764748335714e-2 3.210648059069407e-2 3.251033040094444e-2 3.291926001646273e-2
      3.333333333333333e-2 3.375261505135449e-2 3.417717068414764e-2 3.460706656939418e-2
      3.504236987920083e-2 3.548314863059531e-2 3.592947169615439e-2 3.638140881476506e-2
      3.683903060252161e-2 3.730240856375937e-2 3.777161510222755e-2 3.824672353240242e-2
      3.872780809094278e-2 3.921494394828970e-2 3.970820722041197e-2 4.020767498069936e-2
      4.071342527200567e-2 4.122553711884284e-2 4.174409053972884e-2 4.226916655969068e-2
      4.280084722292472e-2 4.333921560561638e-2 4.388435582892073e-2 4.443635307210679e-2
      4.499529358586680e-2 4.556126470579321e-2 4.613435486602505e-2 4.671465361306579e-2
      4.730225161977527e-2 4.789724069953751e-2 4.849971382060670e-2 4.910976512063386e-2
      4.972748992137569e-2 5.035298474358911e-2 5.098634732211266e-2 5.162767662113778e-2
      5.227707284967230e-2 5.293463747719813e-2 5.360047324952612e-2 5.427468420485036e-2
      5.495737569000427e-2 5.564865437692143e-2 5.634862827930307e-2 5.705740676949551e-2
      5.777510059557987e-2 5.850182189867661e-2 5.923768423046796e-2 5.998280257094031e-2
      6.073729334635035e-2 6.150127444741670e-2 6.227486524774074e-2 6.305818662245900e-2
      6.385136096712989e-2 6.465451221685850e-2 6.546776586566162e-2 6.629124898607640e-2
      6.712509024901591e-2 6.796941994387385e-2 6.882436999888291e-2 6.969007400172856e-2
      7.056666722042250e-2 7.145428662443866e-2 7.235307090611477e-2 7.326316050232345e-2
      7.418469761641564e-2 7.511782624044029e-2 7.606269217764348e-2 7.701944306525016e-2
      7.798822839753306e-2 7.896919954917139e-2 7.996250979890327e-2 8.096831435347628e-2
      8.198677037189837e-2 8.301803698999441e-2 8.406227534527165e-2 8.511964860209755e-2
      8.619032197719489e-2 8.727446276545672e-2 8.837224036608692e-2 8.948382630906908e-2
      9.060939428196818e-2 9.174912015707024e-2 9.290318201886173e-2 9.407176019185664e-2
      9.525503726877218e-2 9.645319813905871e-2 9.766643001779016e-2 9.889492247491562e-2
      1.001388674648811e-1 1.013984593566222e-1 1.026738949639344e-1 1.039653735762265e-1
      1.052730969896590e-1 1.065972695386758e-1 1.079380981279321e-1 1.092957922646224e-1
      1.106705640912184e-1 1.120626284186143e-1 1.134722027596939e-1 1.148995073633159e-1
      1.163447652487280e-1 1.178082022404158e-1 1.192900470033860e-1 1.207905310788980e-1
      1.223098889206416e-1 1.238483579313701e-1 1.254061784999972e-1 1.269835940391554e-1
      1.285808510232324e-1 1.301981990268818e-1 1.318358907640192e-1 1.334941821273110e-1
      1.351733322281559e-1 1.368736034371737e-1 1.385952614252004e-1 1.403385752047987e-1
      1.421038171722941e-1 1.438912631503348e-1 1.457011924309919e-1 1.475338878193979e-1
      1.493896356779355e-1 1.512687259709836e-1 1.531714523102230e-1 1.550981120005156e-1
      1.570490060863582e-1 1.590244393989201e-1 1.610247206036761e-1 1.630501622486335e-1
      1.651010808131704e-1 1.671777967574854e-1 1.692806345726694e-1 1.714099228314097e-1
      1.735659942393283e-1 1.757491856869696e-1 1.779598383024393e-1 1.801982975047056e-1
      1.824649130575735e-1 1.847600391243341e-1 1.870840343231052e-1 1.894372617828649e-1
      1.918200892001910e-1 1.942328888967160e-1 1.966760378773006e-1 1.991499178889441e-1
      2.016549154804316e-1 2.041914220627329e-1 2.067598339701624e-1 2.093605525223055e-1
      2.119939840867277e-1 2.146605401424688e-1 2.173606373443371e-1 2.200946975880145e-1
      2.228631480759757e-1 2.256664213842424e-1 2.285049555299728e-1 2.313791940399012e-1
      2.342895860196434e-1 2.372365862238666e-1 2.402206551273488e-1 2.432422589969279e-1
      2.463018699643550e-1 2.493999661000696e-1 2.525370314878950e-1 2.557135563006809e-1
      2.589300368768926e-1 2.621869757981631e-1 2.654848819678260e-1 2.688242706904292e-1
      2.722056637522549e-1 2.756295895028491e-1 2.790965829375755e-1 2.826071857812127e-1
      2.861619465725965e-1 2.897614207503334e-1 2.934061707395871e-1 2.970967660399579e-1
      3.008337833144710e-1 3.046178064796776e-1 3.084494267968963e-1 3.123292429645979e-1
      3.162578612119509e-1 3.202358953935504e-1 3.242639670853296e-1 3.283427056816860e-1
      3.324727484938243e-1 3.366547408493351e-1 3.408893361930337e-1 3.451771961890565e-1
      3.495189908242524e-1 3.539153985128670e-1 3.583671062025451e-1 3.628748094816716e-1
      3.674392126880535e-1 3.720610290189788e-1 3.767409806426530e-1 3.814797988110374e-1
      3.862782239741134e-1 3.911370058955738e-1 3.960569037699798e-1 4.010386863413846e-1
      4.060831320234491e-1 4.111910290210756e-1 4.163631754535604e-1 4.216003794793074e-1
      4.269034594221014e-1 4.322732438989711e-1 4.377105719496676e-1 4.432162931677596e-1
      4.487912678333903e-1 4.544363670476922e-1 4.601524728689031e-1 4.659404784501882e-1
      4.718012881791936e-1 4.777358178193650e-1 4.837449946530309e-1 4.898297576262981e-1
      4.959910574957616e-1 5.022298569770597e-1 5.085471308953061e-1 5.149438663374008e-1
      5.214210628062724e-1 5.279797323770477e-1 5.346208998551893e-1 5.413456029366285e-1
      5.481548923699021e-1 5.550498321203381e-1 5.620314995363016e-1 5.691009855175287e-1
      5.762593946855889e-1 5.835078455564763e-1 5.908474707153881e-1 5.982794169936886e-1
      6.058048456481022e-1 6.134249325421691e-1 6.211408683299672e-1 6.289538586421628e-1
      6.368651242743889e-1 6.448759013779939e-1 6.529874416532007e-1 6.612010125446778e-1
      6.695178974395889e-1 6.779393958681209e-1 6.864668237065345e-1 6.951015133827811e-1
      7.038448140846876e-1 7.126980919707781e-1 7.216627303837359e-1 7.307401300665490e-1
      7.399317093813888e-1 7.492389045312208e-1 7.586631697842243e-1 7.682059777010201e-1
      7.778688193647573e-1 7.876532046141083e-1 7.975606622791717e-1 8.075927404203661e-1
      8.177510065703125e-1 8.280370479787617e-1 8.384524718606132e-1 8.489989056470366e-1
      8.596779972397687e-1 8.704914152685998e-1 8.814408493520935e-1 8.925280103616052e-1
      9.037546306885970e-1 9.151224645153366e-1 9.266332880889896e-1 9.382888999991550e-1
      9.500911214589106e-1 9.620417965893678e-1 9.741427927078313e-1 9.863960006195660e-1
      9.988033349132341e-1 1.011366734260065e0 1.024088161716765e0 1.036969605032255e0
      1.050013076958266e0 1.063220615563817e0 1.076594284553691e0 1.090136173590872e0
      1.103848398623077e0 1.117733102213365e0 1.131792453874918e0 1.146028650410041e0
      1.160443916253402e0 1.175040503819618e0 1.189820693855197e0 1.204786795794898e0
      1.219941148122601e0 1.235286118736686e0 1.250824105320034e0 1.266557535714660e0
      1.282488868301071e0 1.298620592382401e0 1.314955228573352e0 1.331495329194065e0
      1.348243478668915e0 1.365202293930327e0 1.382374424827694e0 1.399762554541400e0
      1.417369400002093e0 1.435197712315199e0 1.453250277190784e0 1.471529915378843e0
      1.490039483110029e0 1.508781872541959e0 1.527760012211117e0 1.546976867490432e0
      1.566435441052645e0 1.586138773339457e0 1.606089943036627e0 1.626292067555015e0
      1.646748303517673e0 1.667461847253094e0 1.688435935294622e0 1.709673844886190e0
      1.731178894494383e0 1.752954444326948e0 1.775003896857856e0 1.797330697358919e0
      1.819938334438141e0 1.842830340584816e0 1.866010292721472e0 1.889481812762796e0
      1.913248568181541e0 1.937314272581600e0 1.961682686278249e0 1.986357616885700e0
      2.011342919912069e0 2.036642499361779e0 2.062260308345596e0 2.088200349698297e0
      2.114466676604112e0 2.141063393230065e0 2.167994655367234e0 2.195264671080123e0
      2.222877701364174e0 2.250838060811538e0 2.279150118285274e0 2.307818297601955e0
      2.336847078222929e0 2.366240995954231e0 2.396004643655302e0 2.426142671956658e0
      2.456659789986528e0 2.487560766106697e0 2.518850428657556e0 2.550533666712530e0
      2.582615430842032e0 2.615100733886972e0 2.647994651742045e0 2.681302324148844e0
      2.715028955498938e0 2.749179815647104e0 2.783760240734709e0 2.818775634023533e0
      2.854231466740022e0 2.890133278930163e0 2.926486680325164e0 2.963297351217944e0
      3.000571043350727e0 3.038313580813748e0 3.076530860955263e0 3.115228855303058e0
      3.154413610497472e0 3.194091249236229e0 3.234267971231115e0 3.274950054176669e0
      3.316143854731131e0 3.357855809509637e0 3.400092436089990e0 3.442860334031029e0
      3.486166185903807e0 3.530016758335801e0 3.574418903068152e0 3.619379558026320e0
      3.664905748404121e0 3.711004587761412e0 3.757683279135644e0 3.804949116167301e0
      3.852809484239589e0 3.901271861632397e0 3.950343820690778e0 4.000033029008185e0
      4.050347250624499e0 4.101294347239218e0 4.152882279439848e0 4.205119107945739e0
      4.258012994867634e0 4.311572204982966e0 4.365805107027287e0 4.420720175001889e0
      4.476325989497851e0 4.532631239036837e0 4.589644721428624e0 4.647375345145838e0
      4.705832130715900e0 4.765024212130467e0 4.824960838272704e0 4.885651374362372e0
      4.947105303419220e0 5.009332227744699e0 5.072341870422321e0 5.136144076836964e0
      5.200748816213170e0 5.266166183172915e0 5.332406399312889e0 5.399479814801611e0
      5.467396909996733e0 5.536168297082537e0 5.605804721728181e0 5.676317064766705e0
      5.747716343895145e0 5.820013715396148e0 5.893220475881082e0 5.967348064055222e0
      6.042408062505046e0 6.118412199508000e0 6.195372350865144e0 6.273300541756683e0
      6.352208948621000e0 6.432109901057220e0 6.513015883751698e0 6.594939538428858e0
      6.677893665826394e0 6.761891227695497e0 6.846945348826112e0 6.933069319097688e0
      7.020276595555825e0 7.108580804514869e0 7.197995743687136e0 7.288535384338806e0
      7.380213873472906e0 7.473045536039909e0 7.567044877175936e0 7.662226584469295e0
      7.758605530255410e0 7.856196773940621e0 7.955015564355329e0 8.055077342136560e0
      8.156397742140680e0 8.258992595886344e0 8.362877934028154e0 8.468069988861576e0
      8.574585196859166e0 8.682440201238894e0 8.791651854564641e0 8.902237221379405e0
      9.014213580871766e0 9.127598429575686e0 9.242409484104465e0 9.358664683918985e0
      9.476382194130698e0 9.595580408340112e0 9.716277951510673e0 9.838493682879077e0
      9.962246698902019e0 1.008755633624000e1 1.021444217477882e1 1.034292404068888e1
      1.047302200952314e1 1.060475640935394e1 1.073814782394922e1 1.087321709598894e1
      1.100998533032163e1 1.114847389726217e1 1.128870443593092e1 1.143069885763481e1
      1.157447934929117e1 1.172006837689429e1 1.186748868902597e1 1.201676332040992e1
      1.216791559551097e1 1.232096913217964e1 1.247594784534241e1 1.263287595073852e1
      1.279177796870374e1 1.295267872800163e1 1.311560336970322e1 1.328057735111520e1
      1.344762644975784e1 1.361677676739268e1 1.378805473410096e1 1.396148711241348e1
      1.413710100149215e1 1.431492384136447e1 1.449498341721096e1 1.467730786370663e1
      1.486192566941725e1 1.504886568125052e1 1.523815710896363e1 1.542982952972732e1
      1.562391289274723e1 1.582043752394376e1 1.601943413069031e1 1.622093380661157e1
      1.642496803644189e1 1.663156870094473e1 1.684076808189432e1 1.705259886711947e1
      1.726709415561140e1 1.748428746269535e1 1.770421272526737e1 1.792690430709725e1
      1.815239700419765e1 1.838072605026129e1 1.861192712216620e1 1.884603634555017e1
      1.908309030045573e1 1.932312602704555e1 1.956618103139030e1 1.981229329132894e1
      2.006150126240274e1 2.031384388386427e1 2.056936058476146e1 2.082809129009870e1
      2.109007642707514e1 2.135535693140136e1 2.162397425369597e1 2.189597036596199e1
      2.217138776814540e1 2.245026949477565e1 2.273265912168985e1 2.301860077284181e1
      2.330813912719619e1 2.360131942570998e1 2.389818747840133e1 2.419878967150738e1
      2.450317297473247e1 2.481138494858691e1 2.512347375181871e1 2.543948814893839e1
      2.575947751783833e1 2.608349185750855e1 2.641158179584874e1 2.674379859757930e1
      2.708019417225147e1 2.742082108235808e1 2.776573255154696e1 2.811498247293679e1
      2.846862541753838e1 2.882671664278139e1 2.918931210114820e1 2.955646844891698e1
      2.992824305501395e1 3.030469400997775e1 3.068588013503604e1 3.107186099129628e1
      3.146269688905266e1 3.185844889720926e1 3.225917885282255e1 3.266494937076347e1
      3.307582385350087e1 3.349186650100873e1 3.391314232079704e1 3.433971713806979e1
      3.477165760601013e1 3.520903121619484e1 3.565190630914048e1 3.610035208498120e1
      3.655443861428195e1 3.701423684898684e1 3.747981863350535e1 3.795125671593871e1
      3.842862475944629e1 3.891199735375618e1 3.940145002681973e1 3.989705925661278e1
      4.039890248308595e1 4.090705812026423e1 4.142160556849986e1 4.194262522687856e1
      4.247019850578180e1 4.300440783960794e1 4.354533669965210e1 4.409306960714924e1
      4.464769214648064e1 4.520929097854628e1 4.577795385430641e1 4.635376962849217e1
      4.693682827348986e1 4.752722089339907e1 4.812503973826768e1 4.873037821850665e1
      4.934333091948488e1 4.996399361630907e1 5.059246328878843e1 5.122883813658775e1
      5.187321759457188e1 5.252570234834194e1 5.318639434996831e1 5.385539683392051e1
      5.453281433319757e1 5.521875269566217e1 5.591331910057878e1 5.661662207536141e1
      5.732877151253081e1 5.804987868688524e1 5.878005627288799e1 5.951941836227223e1
      6.026808048186878e1 6.102615961165707e1 6.179377420304329e1 6.257104419736923e1
      6.335809104465270e1 6.415503772256492e1 6.496200875564583e1 6.577913023476093e1
      6.660652983680404e1 6.744433684464603e1 6.829268216733659e1 6.915169836055845e1
      7.002151964733926e1 7.090228193902496e1 7.179412285651534e1 7.269718175176831e1
      7.361159972957370e1 7.453751966960066e1 7.547508624872390e1 7.642444596362862e1
      7.738574715370190e1 7.835914002421060e1 7.934477666977087e1 8.034281109811413e1
      8.135339925415002e1 8.237669904433417e1 8.341287036134084e1 8.446207510904612e1
      8.552447722782679e1 8.660024272017502e1 8.768953967663787e1 8.879253830208107e1
      8.990941094228367e1 9.104033211086827e1 9.218547851656801e1 9.334502909083879e1
      9.451916501581712e1 9.570806975262972e1 9.691192907006094e1 9.813093107357801e1
      9.936526623472428e1
      </PP_R>
    <PP_RAB>
      3.799508189810484e-7 3.847300119454258e-7 3.895693197569092e-7 3.944694985671892e-7
      3.994313140391750e-7 4.044555414666286e-7 4.095429658953077e-7 4.146943822456298e-7
      4.199105954368793e-7 4.251924205129810e-7 4.305406827698487e-7 4.359562178843410e-7
      4.414398720448375e-7 4.469925020834570e-7 4.526149756099408e-7 4.583081711472160e-7