<UPF version="2.0.1">
  <PP_INFO><![CDATA[
Generated using "atomic" code by A. Dal Corso  v.6.6
Author: ADC
Generation date: 21May2021
Pseudopotential type: USPP
Element: As
Functional: PBESOL
    Suggested minimum cutoff for wavefunctions:  43. Ry
    Suggested minimum cutoff for charge density: 288. Ry
    The Pseudo was generated with a Scalar-Relativistic Calculation
    Local Potential by smoothing AE potential with Bessel fncs, cutoff radius:   2.0000
    Valence configuration:
    nl pn  l   occ       Rcut    Rcut US       E pseu
    4S  1  0  2.00      1.500      1.800    -1.065943
    4P  2  1  3.00      1.600      1.800    -0.381923
    3D  3  2 10.00      1.200      1.700    -2.987185
    Generation configuration:
    4S  1  0  2.00      1.500      1.800    -1.065940
    4S  1  0  0.00      1.500      1.800     2.000000
    4P  2  1  3.00      1.600      1.800    -0.381921
    4P  2  1  0.00      1.600      1.800     2.000000
    3D  3  2 10.00      1.200      1.700    -2.987185
    3D  3  2  0.00      1.200      1.700     0.050000
    Pseudization used: troullier-martins
]]>
    <PP_INPUTFILE><![CDATA[
 &input
   title='As',
   zed=33.,
   rel=1,
   config='[Ar] 4s2 4p3 3d10',
   iswitch=3,
   dft='PBESOL'
 /
 &inputp
   lpaw=.false.,
   pseudotype=3,
   file_pseudopw='As.pbesol-dn-rrkjus_psl.1.0.0.UPF',
   author='ADC',
   lloc=-1,
   rcloc=2.0,
   which_augfun='PSQ',
   rmatch_augfun_nc=.true.,
   nlcc=.true.,
   new_core_ps=.true.,
   rcore=1.0,
   tm=.true.
 /
6
4S  1  0  2.00  0.00  1.50  1.80  0.0
4S  1  0  0.00  2.00  1.50  1.80  0.0
4P  2  1  3.00  0.00  1.60  1.80  0.0
4P  2  1  0.00  2.00  1.60  1.80  0.0
3D  3  2 10.00  0.00  1.20  1.70  0.0
3D  3  2  0.00  0.05  1.20  1.70  0.0
]]></PP_INPUTFILE>
  </PP_INFO>
  <!--
 END OF HUMAN READABLE SECTION 
-->
  <PP_HEADER generated="Generated using &quot;atomic&quot; code by A. Dal Corso  v.6.6" author="ADC" date="21May2021" comment="" element="As" pseudo_type="USPP" relativistic="scalar" is_ultrasoft="true" is_paw="false" is_coulomb="false" has_so="false" has_wfc="false" has_gipaw="false" paw_as_gipaw="false" core_correction="true" functional="PBESOL" z_valence="1.500000000000e1" total_psenergy="-2.406948345476e2" wfc_cutoff="4.262794551760e1" rho_cutoff="2.877937549926e2" l_max="2" l_max_rho="4" l_local="-1" mesh_size="1209" number_of_wfc="3" number_of_proj="6"/>
  <PP_MESH dx="1.250000000000e-2" mesh="1209" xmin="-7.000000000000e0" rmax="1.000000000000e2" zmesh="3.300000000000e1">
    <PP_R>
      2.763278683498533e-5 2.798036450512189e-5 2.833231416413885e-5 2.868869080488649e-5
      2.904955011194000e-5 2.941494847030027e-5 2.978494297420420e-5 3.015959143604579e-5
      3.053895239540941e-5 3.092308512821681e-5 3.131204965598899e-5 3.170590675522480e-5
      3.210471796689728e-5 3.250854560606960e-5 3.291745277163206e-5 3.333150335616116e-5
      3.375076205590313e-5 3.417529438088280e-5 3.460516666513962e-5 3.504044607709266e-5
      3.548120063003559e-5 3.592749919276403e-5 3.637941150033638e-5 3.683700816497015e-5
      3.730036068707518e-5 3.776954146642574e-5 3.824462381347317e-5 3.872568196080074e-5
      3.921279107472266e-5 3.970602726702910e-5 4.020546760687854e-5 4.071119013284021e-5
      4.122327386508768e-5 4.174179881774597e-5 4.226684601139389e-5 4.279849748572369e-5
      4.333683631235984e-5 4.388194660783926e-5 4.443391354675463e-5 4.499282337506322e-5
      4.555876342356280e-5 4.613182212153733e-5 4.671208901057425e-5 4.729965475855552e-5
      4.789461117382475e-5 4.849705121953225e-5 4.910706902816081e-5 4.972475991623412e-5
      5.035022039921012e-5 5.098354820656185e-5 5.162484229704769e-5 5.227420287417401e-5
      5.293173140185210e-5 5.359753062025215e-5 5.427170456185666e-5 5.495435856771563e-5
      5.564559930390629e-5 5.634553477820003e-5 5.705427435693871e-5 5.777192878212354e-5
      5.849861018871847e-5 5.923443212217173e-5 5.997950955615749e-5 6.073395891054058e-5
      6.149789806956769e-5 6.227144640028665e-5 6.305472477119787e-5 6.384785557114042e-5
      6.465096272841540e-5 6.546417173015016e-5 6.628760964190561e-5 6.712140512753082e-5
      6.796568846926676e-5 6.882059158810323e-5 6.968624806439200e-5 7.056279315871860e-5
      7.145036383303736e-5 7.234909877207192e-5 7.325913840498495e-5 7.418062492732069e-5
      7.511370232322299e-5 7.605851638793329e-5 7.701521475057147e-5 7.798394689720301e-5
      7.896486419419690e-5 7.995811991187640e-5 8.096386924846820e-5 8.198226935435232e-5
      8.301347935661722e-5 8.405766038392388e-5 8.511497559168220e-5 8.618559018754446e-5
      8.726967145721948e-5 8.836738879061114e-5 8.947891370828625e-5 9.060441988827455e-5
      9.174408319320651e-5 9.289808169779221e-5 9.406659571664573e-5 9.524980783246001e-5
      9.644790292453536e-5 9.766106819766749e-5 9.888949321139842e-5 1.001333699096358e-4
      1.013928926506446e-4 1.026682582374155e-4 1.039596659484162e-4 1.052673175687289e-4
      1.065914174215796e-4 1.079321724002645e-4 1.092897920004767e-4 1.106644883530407e-4
      1.120564762570585e-4 1.134659732134721e-4 1.148931994590487e-4 1.163383780007929e-4
      1.178017346507918e-4 1.192834980614995e-4 1.207838997614633e-4 1.223031741915018e-4
      1.238415587413353e-4 1.253992937866799e-4 1.269766227268055e-4 1.285737920225679e-4
      1.301910512349194e-4 1.318286530639021e-4 1.334868533881335e-4 1.351659113047879e-4
      1.368660891700808e-4 1.385876526402628e-4 1.403308707131287e-4 1.420960157700488e-4
      1.438833636185296e-4 1.456931935353087e-4 1.475257883099928e-4 1.493814342892440e-4
      1.512604214215217e-4 1.531630433023883e-4 1.550895972203834e-4 1.570403842034765e-4
      1.590157090661026e-4 1.610158804567902e-4 1.630412109063885e-4 1.650920168769008e-4
      1.671686188109325e-4 1.692713411817606e-4 1.714005125440336e-4 1.735564655851086e-4
      1.757395371770346e-4 1.779500684291895e-4 1.801884047415786e-4 1.824548958588048e-4
      1.847498959247163e-4 1.870737635377424e-4 1.894268618069261e-4 1.918095584086590e-4
      1.942222256441328e-4 1.966652404975117e-4 1.991389846948367e-4 2.016438447636719e-4
      2.041802120934990e-4 2.067484829968735e-4 2.093490587713495e-4 2.119823457621822e-4
      2.146487554258220e-4 2.173487043942030e-4 2.200826145398452e-4 2.228509130417708e-4
      2.256540324522527e-4 2.284924107644023e-4 2.313664914806049e-4 2.342767236818203e-4
      2.372235620977507e-4 2.402074671778938e-4 2.432289051634897e-4 2.462883481603701e-4
      2.493862742127282e-4 2.525231673778123e-4 2.556995178015615e-4 2.589158217951923e-4
      2.621725819127465e-4 2.654703070296191e-4 2.688095124220684e-4 2.721907198477308e-4
      2.756144576271462e-4 2.790812607263073e-4 2.825916708402523e-4 2.861462364777034e-4
      2.897455130467729e-4 2.933900629417483e-4 2.970804556309645e-4 3.008172677457883e-4
      3.046010831707147e-4 3.084324931346021e-4 3.123120963030530e-4 3.162404988719547e-4
      3.202183146622017e-4 3.242461652156039e-4 3.283246798920045e-4 3.324544959676209e-4
      3.366362587346154e-4 3.408706216019292e-4 3.451582461973751e-4 3.494998024710188e-4
      3.538959687998622e-4 3.583474320938369e-4 3.628548879031400e-4 3.674190405269120e-4
      3.720406031232859e-4 3.767202978208211e-4 3.814588558313332e-4 3.862570175641536e-4
      3.911155327418143e-4 3.960351605171963e-4 4.010166695921497e-4 4.060608383376008e-4
      4.111684549151798e-4 4.163403174003680e-4 4.215772339072005e-4 4.268800227145374e-4
      4.322495123939168e-4 4.376865419390266e-4 4.431919608967946e-4 4.487666295001333e-4
      4.544114188023550e-4 4.601272108132711e-4 4.659148986370132e-4 4.717753866115785e-4
      4.777095904501359e-4 4.837184373841098e-4 4.898028663080567e-4 4.959638279263767e-4
      5.022022849018562e-4 5.085192120060897e-4 5.149155962717904e-4 5.213924371470116e-4
      5.279507466513186e-4 5.345915495339141e-4 5.413158834337586e-4 5.481247990417065e-4
      5.550193602646720e-4 5.620006443918752e-4 5.690697422631640e-4 5.762277584394623e-4
      5.834758113753614e-4 5.908150335938787e-4 5.982465718634176e-4 6.057715873769523e-4
      6.133912559334664e-4 6.211067681216744e-4 6.289193295060529e-4 6.368301608152132e-4
      6.448404981326417e-4 6.529515930898416e-4 6.611647130619023e-4 6.694811413655286e-4
      6.779021774595638e-4 6.864291371480295e-4 6.950633527857253e-4 7.038061734864113e-4
      7.126589653336093e-4 7.216231115940569e-4 7.307000129338448e-4 7.398910876372737e-4
      7.491977718284666e-4 7.586215196957622e-4 7.681638037189378e-4 7.778261148992859e-4
      7.876099629925861e-4 7.975168767450096e-4 8.075484041319845e-4 8.177061126000751e-4
      8.279915893118961e-4 8.384064413941084e-4 8.489522961885401e-4 8.596308015064574e-4
      8.704436258860435e-4 8.813924588531052e-4 8.924790111850694e-4 9.037050151782942e-4
      9.150722249187424e-4 9.265824165560634e-4 9.382373885811180e-4 9.500389621069965e-4
      9.619889811535742e-4 9.740893129356385e-4 9.863418481546493e-4 9.987485012941628e-4
      1.011311210918972e-3 1.024031939978017e-3 1.036912676111092e-3 1.049955431959425e-3
      1.063162245480153e-3 1.076535180264756e-3 1.090076325861505e-3 1.103787798101946e-3
      1.117671739431516e-3 1.131730319244292e-3 1.145965734221972e-3 1.160380208677111e-3
      1.174975994900667e-3 1.189755373513934e-3 1.204720653824888e-3 1.219874174189026e-3
      1.235218302374734e-3 1.250755435933259e-3 1.266488002573331e-3 1.282418460540494e-3
      1.298549299001218e-3 1.314883038431830e-3 1.331422231012346e-3 1.348169461025258e-3
      1.365127345259328e-3 1.382298533418467e-3 1.399685708535761e-3 1.417291587392696e-3
      1.435118920943664e-3 1.453170494745802e-3 1.471449129394242e-3 1.489957680962836e-3
      1.508699041450423e-3 1.527676139232709e-3 1.546891939519831e-3 1.566349444819679e-3
      1.586051695407042e-3 1.606001769798661e-3 1.626202785234246e-3 1.646657898163560e-3
      1.667370304739614e-3 1.688343241318073e-3 1.709579984962950e-3 1.731083853958645e-3
      1.752858208328439e-3 1.774906450359502e-3 1.797232025134507e-3 1.819838421069937e-3
      1.842729170461151e-3 1.865907850034310e-3 1.889378081505256e-3 1.913143532145405e-3
      1.937207915354775e-3 1.961574991242199e-3 1.986248567212859e-3 2.011232498563201e-3
      2.036530689083326e-3 2.062147091666976e-3 2.088085708929169e-3 2.114350593831626e-3
      2.140945850316049e-3 2.167875633945370e-3 2.195144152553074e-3 2.222755666900671e-3
      2.250714491343452e-3 2.279024994504619e-3 2.307691599957889e-3 2.336718786918688e-3
      2.366111090944035e-3 2.395873104641233e-3 2.426009478385472e-3 2.456524921046462e-3
      2.487424200724206e-3 2.518712145494017e-3 2.550393644160921e-3 2.582473647023542e-3
      2.614957166647591e-3 2.647849278649103e-3 2.681155122487494e-3 2.714879902268628e-3
      2.749028887557956e-3 2.783607414203906e-3 2.818620885171621e-3 2.854074771387172e-3
      2.889974612592414e-3 2.926326018210572e-3 2.963134668222729e-3 3.000406314055342e-3
      3.038146779478901e-3 3.076361961517912e-3 3.115057831372316e-3 3.154240435350504e-3
      3.193915895814071e-3 3.234090412134431e-3 3.274770261661494e-3 3.315961800704515e-3
      3.357671465525272e-3 3.399905773343750e-3 3.442671323356477e-3 3.485974797767649e-3
      3.529822962833243e-3 3.574222669918260e-3 3.619180856567261e-3 3.664704547588385e-3
      3.710800856150969e-3 3.757476984897008e-3 3.804740227066585e-3 3.852597967637442e-3
      3.901057684478916e-3 3.950126949520355e-3 3.999813429934251e-3 4.050124889334258e-3
      4.101069188988264e-3 4.152654289046742e-3 4.204888249786524e-3 4.257779232870248e-3
      4.311335502621626e-3 4.365565427316767e-3 4.420477480491741e-3 4.476080242266572e-3
      4.532382400685913e-3 4.589392753076566e-3 4.647120207422074e-3 4.705573783754637e-3
      4.764762615564474e-3 4.824695951226980e-3 4.885383155447784e-3 4.946833710726012e-3
      5.009057218835956e-3 5.072063402327350e-3 5.135862106044552e-3 5.200463298664814e-3
      5.265877074255913e-3 5.332113653853378e-3 5.399183387057530e-3 5.467096753650633e-3
      5.535864365234387e-3 5.605496966888008e-3 5.676005438847183e-3 5.747400798204101e-3
      5.819694200628915e-3 5.892896942112838e-3 5.967020460733154e-3 6.042076338440459e-3
      6.118076302868348e-3 6.195032229165882e-3 6.272956141853115e-3 6.351860216699934e-3
      6.431756782628578e-3 6.512658323640021e-3 6.594577480764636e-3 6.677527054037393e-3
      6.761520004497873e-3 6.846569456215481e-3 6.932688698340074e-3 7.019891187178452e-3
      7.108190548296904e-3 7.197600578650247e-3 7.288135248737642e-3 7.379808704785479e-3
      7.472635270957775e-3 7.566629451594355e-3 7.661805933477166e-3 7.758179588125154e-3
      7.855765474117927e-3 7.954578839448709e-3 8.054635123906873e-3 8.155949961490418e-3
      8.258539182848869e-3 8.362418817756762e-3 8.467605097618408e-3 8.574114458004033e-3
      8.681963541217883e-3 8.791169198898647e-3 8.901748494652512e-3 9.013718706719416e-3
      9.127097330672797e-3 9.241902082153310e-3 9.358150899636966e-3 9.475861947237997e-3
      9.595053617547073e-3 9.715744534505177e-3 9.837953556313629e-3 9.961699778380734e-3
      1.008700253630544e-2 1.021388140889862e-2 1.034235622124224e-2 1.047244704778711e-2
      1.060417421548956e-2 1.073755830698754e-2 1.087262016381672e-2 1.100938088966701e-2
      1.114786185368007e-2 1.128808469378827e-2 1.143007132009567e-2 1.157384391830149e-2
      1.171942495316671e-2 1.186683717202421e-2 1.201610360833312e-2 1.216724758527778e-2
      1.232029271941210e-2 1.247526292434966e-2 1.263218241450025e-2 1.279107570885350e-2
      1.295196763480990e-2 1.311488333206023e-2 1.327984825651362e-2 1.344688818427515e-2
      1.361602921567338e-2 1.378729777933860e-2 1.396072063633230e-2 1.413632488432875e-2
      1.431413796184893e-2 1.449418765254801e-2 1.467650208955644e-2 1.486110975987595e-2
      1.504803950883060e-2 1.523732054457397e-2 1.542898244265301e-2 1.562305515062922e-2
      1.581956899275807e-2 1.601855467472720e-2 1.622004328845425e-2 1.642406631694507e-2
      1.663065563921293e-2 1.683984353525975e-2 1.705166269111988e-2 1.726614620396736e-2
      1.748332758728748e-2 1.770324077611321e-2 1.792592013232774e-2 1.815140045003351e-2
      1.837971696098889e-2 1.861090534011327e-2 1.884500171106122e-2 1.908204265186698e-2
      1.932206520065981e-2 1.956510686145127e-2 1.981120560999537e-2 2.006039989972225e-2
      2.031272866774665e-2 2.056823134095196e-2 2.082694784215067e-2 2.108891859632249e-2
      2.135418453693072e-2 2.162278711231827e-2 2.189476829218402e-2 2.217017057414066e-2
      2.244903699035509e-2 2.273141111427218e-2 2.301733706742330e-2 2.330685952632034e-2
      2.360002372943651e-2 2.389687548427505e-2 2.419746117452659e-2 2.450182776731675e-2
      2.481002282054492e-2 2.512209449031516e-2 2.543809153846083e-2 2.575806334016359e-2
      2.608205989166843e-2 2.641013181809571e-2 2.674233038135138e-2 2.707870748813685e-2
      2.741931569805939e-2 2.776420823184479e-2 2.811343897965314e-2 2.846706250949927e-2
      2.882513407577921e-2 2.918770962790370e-2 2.955484581904040e-2 2.992660001496612e-2
      3.030303030303030e-2 3.068419550123135e-2 3.107015516740695e-2 3.146096960854017e-2
      3.185669989018257e-2 3.225740784599573e-2 3.266315608741308e-2 3.307400801342278e-2
      3.349002782047419e-2 3.391128051250853e-2 3.433783191111595e-2 3.476974866582038e-2
      3.520709826449344e-2 3.564994904389973e-2 3.609837020037451e-2 3.655243180063578e-2
      3.701220479273243e-2 3.747776101712985e-2 3.794917321793530e-2 3.842651505426425e-2
      3.890986111174974e-2 3.939928691419670e-2 3.989486893538249e-2 4.039668461100616e-2
      4.090481235078800e-2 4.141933155072110e-2 4.194032260547732e-2 4.246786692096890e-2
      4.300204692706843e-2 4.354294609048865e-2 4.409064892782427e-2 4.464524101875806e-2
      4.520680901943245e-2 4.577544067599010e-2 4.635122483828424e-2 4.693425147376161e-2
      4.752461168152028e-2 4.812239770654376e-2 4.872770295411466e-2 4.934062200440942e-2
      4.996125062727661e-2 5.058968579720132e-2 5.122602570845734e-2 5.187036979045047e-2
      5.252281872325444e-2 5.318347445334238e-2 5.385244020951632e-2 5.452982051903664e-2
      5.521572122395485e-2 5.591024949765155e-2 5.661351386158250e-2 5.732562420223546e-2
      5.804669178829990e-2 5.877682928805318e-2 5.951615078696511e-2 6.026477180552400e-2
      6.102280931728719e-2 6.179038176715805e-2 6.256760908989357e-2 6.335461272884415e-2
      6.415151565492954e-2 6.495844238585333e-2 6.577551900555888e-2 6.660287318393038e-2
      6.744063419674150e-2 6.828893294585480e-2 6.914790197967589e-2 7.001767551386378e-2
      7.089838945230278e-2 7.179018140833762e-2 7.269319072627569e-2 7.360755850316027e-2
      7.453342761081670e-2 7.547094271817674e-2 7.642025031388333e-2 7.738149872917960e-2
      7.835483816108626e-2 7.934042069586975e-2 8.033840033280629e-2 8.134893300824462e-2
      8.237217661997107e-2 8.340829105188202e-2 8.445743819896521e-2 8.551978199259695e-2
      8.659548842615655e-2 8.768472558096246e-2 8.878766365253652e-2 8.990447497719602e-2
      9.103533405898279e-2 9.218041759692925e-2 9.333990451266761e-2 9.451397597838774e-2
      9.570281544514451e-2 9.690660867152346e-2 9.812554375266556e-2 9.935981114965676e-2
      1.006096037192894e-1 1.018751167441949e-1 1.031565479633581e-1 1.044540976030145e-1
      1.057679684079346e-1 1.070983656731052e-1 1.084454972758055e-1 1.098095737080891e-1
      1.111908081096741e-1 1.125894163012456e-1 1.140056168181792e-1 1.154396309446867e-1
      1.168916827483931e-1 1.183619991153471e-1 1.198508097854720e-1 1.213583473884645e-1
      1.228848474801417e-1 1.244305485792488e-1 1.259956922047276e-1 1.275805229134533e-1
      1.291852883384492e-1 1.308102392275771e-1 1.324556294827199e-1 1.341217161994527e-1
      1.358087597072141e-1 1.375170236099851e-1 1.392467748274755e-1 1.409982836368324e-1
      1.427718237148710e-1 1.445676721808364e-1 1.463861096397055e-1 1.482274202260305e-1
      1.500918916483367e-1 1.519798152340777e-1 1.538914859751540e-1 1.558272025740088e-1
      1.577872674902985e-1 1.597719869881542e-1 1.617816711840358e-1 1.638166340951869e-1
      1.658771936887032e-1 1.679636719312128e-1 1.700763948391865e-1 1.722156925298772e-1
      1.743818992729009e-1 1.765753535424691e-1 1.787963980702733e-1 1.810453798990400e-1
      1.833226504367560e-1 1.856285655115753e-1 1.879634854274204e-1 1.903277750202778e-1
      1.927218037152070e-1 1.951459455840625e-1 1.976005794039428e-1 2.000860887163768e-1
      2.026028618872507e-1 2.051512921674931e-1 2.077317777545207e-1 2.103447218544556e-1
      2.129905327451303e-1 2.156696238398787e-1 2.183824137521353e-1 2.211293263608435e-1
      2.239107908766864e-1 2.267272419091541e-1 2.295791195344500e-1 2.324668693642554e-1
      2.353909426153569e-1 2.383517961801482e-1 2.413498926980236e-1 2.443857006276629e-1
      2.474596943202317e-1 2.505723540934992e-1 2.537241663068868e-1 2.569156234374661e-1
      2.601472241569059e-1 2.634194734093940e-1 2.667328824905337e-1 2.700879691272345e-1
      2.734852575586100e-1 2.769252786178887e-1 2.804085698153603e-1 2.839356754223617e-1
      2.875071465563190e-1 2.911235412668640e-1 2.947854246230269e-1 2.984933688015328e-1
      3.022479531762039e-1 3.060497644084865e-1 3.098993965391215e-1 3.137974510809605e-1
      3.177445371129567e-1 3.217412713753336e-1 3.257882783659501e-1 3.298861904378833e-1
      3.340356478982304e-1 3.382372991081626e-1 3.424918005842299e-1 3.467998171009431e-1
      3.511620217946485e-1 3.555790962687034e-1 3.600517306999817e-1 3.645806239467133e-1
      3.691664836576810e-1 3.738100263827960e-1 3.785119776850550e-1 3.832730722539158e-1
      3.880940540200922e-1 3.929756762717919e-1 3.979187017724251e-1 4.029239028797814e-1
      4.079920616667184e-1 4.131239700433565e-1 4.183204298808211e-1 4.235822531365347e-1
      4.289102619810850e-1 4.343052889266954e-1 4.397681769573007e-1 4.452997796602710e-1
      4.509009613597833e-1 4.565725972518725e-1 4.623155735411872e-1 4.681307875794554e-1
      4.740191480057022e-1 4.799815748882253e-1 4.860189998683539e-1 4.921323663060260e-1
      4.983226294271837e-1 5.045907564730347e-1 5.109377268511833e-1 5.173645322886625e-1
      5.238721769868989e-1 5.304616777786149e-1 5.371340642867164e-1 5.438903790851715e-1
      5.507316778619112e-1 5.576590295837901e-1 5.646735166636065e-1 5.717762351292389e-1
      5.789682947948991e-1 5.862508194345399e-1 5.936249469574552e-1 6.010918295860707e-1
      6.086526340359899e-1 6.163085416982917e-1 6.240607488241223e-1 6.319104667116192e-1
      6.398589218951704e-1 6.479073563370710e-1 6.560570276215780e-1 6.643092091514083e-1
      6.726651903467172e-1 6.811262768465643e-1 6.896937907129312e-1 6.983690706372910e-1
      7.071534721497795e-1 7.160483678310076e-1 7.250551475265198e-1 7.341752185639691e-1
      7.434100059730113e-1 7.527609527079651e-1 7.622295198732848e-1 7.718171869518514e-1
      7.815254520361535e-1 7.913558320623634e-1 8.013098630473577e-1 8.113891003287319e-1
      8.215951188078154e-1 8.319295131957606e-1 8.423938982627179e-1 8.529899090901411e-1
      8.637192013262823e-1 8.745834514448799e-1 8.855843570071194e-1 8.967236369268782e-1
      9.080030317393037e-1 9.194243038727866e-1 9.309892379243314e-1 9.426996409384140e-1
      9.545573426893323e-1 9.665641959671060e-1 9.787220768669917e-1 9.910328850826113e-1
      1.003498544202797e0 1.016121002012150e0 1.028902230795380e0 1.041844227645492e0
      1.054949014775820e0 1.068218639836016e0 1.081655176231997e0 1.095260723449907e0
      1.109037407384183e0 1.122987380669715e0 1.137112823018212e0 1.151415941558782e0
      1.165898971182792e0 1.180564174893092e0 1.195413844157593e0 1.210450299267331e0
      1.225675889699013e0 1.241092994482115e0 1.256704022570631e0 1.272511413219455e0
      1.288517636365539e0 1.304725193013817e0 1.321136615627985e0 1.337754468526221e0
      1.354581348281844e0 1.371619884129053e0 1.388872738373743e0 1.406342606809484e0
      1.424032219138768e0 1.441944339399506e0 1.460081766396934e0 1.478447334140923e0
      1.497043912288794e0 1.515874406593722e0 1.534941759358748e0 1.554248949896536e0
      1.573798994994894e0 1.593594949388135e0 1.613639906234415e0 1.633936997599017e0
      1.654489394943765e0 1.675300309622560e0 1.696372993383156e0 1.717710738875269e0
      1.739316880165038e0 1.761194793255999e0 1.783347896616590e0 1.805779651714272e0
      1.828493563556426e0 1.851493181237981e0 1.874782098495997e0 1.898363954271179e0
      1.922242433276465e0 1.946421266572786e0 1.970904232152031e0 1.995695155527385e0
      2.020797910331067e0 2.046216418919580e0 2.071954652986613e0 2.098016634183595e0
      2.124406434748117e0 2.151128178140210e0 2.178186039686639e0 2.205584247233325e0
      2.233327081805935e0 2.261418878278815e0 2.289864026052324e0 2.318666969738663e0
      2.347832209856393e0 2.377364303533611e0 2.407267865220041e0 2.437547567408040e0
      2.468208141362671e0 2.499254377861003e0 2.530691127940645e0 2.562523303657758e0
      2.594755878854565e0 2.627393889936512e0 2.660442436659240e0 2.693906682925404e0
      2.727791857591570e0 2.762103255285226e0 2.796846237232057e0 2.832026232093689e0
      2.867648736815883e0 2.903719317487481e0 2.940243610210104e0 2.977227321978790e0
      3.014676231573756e0 3.052596190463307e0 3.090993123718172e0 3.129873030937298e0
      3.169241987185280e0 3.209106143941637e0 3.249471730061956e0 3.290345052751200e0
      3.331732498549200e0 3.373640534328556e0 3.416075708305131e0 3.459044651061183e0
      3.502554076581444e0 3.546610783302179e0 3.591221655173435e0 3.636393662734714e0
      3.682133864204090e0 3.728449406581107e0 3.775347526763499e0 3.822835552677945e0
      3.870920904425122e0 3.919611095439059e0 3.968913733661170e0 4.018836522728989e0
      4.069387263179864e0 4.120573853669852e0 4.172404292207840e0 4.224886677405308e0
      4.278029209741727e0 4.331840192845879e0 4.386328034793368e0 4.441501249420339e0
      4.497368457653836e0 4.553938388858818e0 4.611219882202110e0 4.669221888033603e0
      4.727953469284700e0 4.787423802884469e0 4.847642181193535e0 4.908618013456010e0
      4.970360827269757e0 5.032880270075034e0 5.096186110661983e0 5.160288240697004e0
      5.225196676268313e0 5.290921559451044e0 5.357473159891892e0 5.424861876413838e0
      5.493098238640950e0 5.562192908643636e0 5.632156682604676e0 5.703000492506075e0
      5.774735407837272e0 5.847372637324745e0 5.920923530683362e0 5.995399580389871e0
      6.070812423478540e0 6.147173843359542e0 6.224495771660102e0 6.302790290088807e0
      6.382069632323478e0 6.462346185922608e0 6.543632494261034e0 6.625941258489823e0
      6.709285339520823e0 6.793677760036282e0 6.879131706523579e0 6.965660531335723e0
      7.053277754777645e0 7.141997067218746e0 7.231832331232117e0 7.322797583760508e0
      7.414907038309709e0 7.508175087169404e0 7.602616303661957e0 7.698245444419614e0
      7.795077451690150e0 7.893127455671721e0 7.992410776876947e0 8.092942928526732e0
      8.194739618974333e0 8.297816754159713e0 8.402190440094969e0 8.507876985380895e0
      8.614892903755180e0 8.723254916672829e0 8.832979955918793e0 8.944085166253705e0
      9.056587908092744e0 9.170505760218177e0 9.285856522526199e0 9.402658218808073e0
      9.520929099566491e0 9.640687644867214e0 9.761952567226562e0 9.884742814535404e0
      1.000907757301966e1 1.013497627023834e1 1.026245857811902e1 1.039154441603165e1
      1.052225395390106e1 1.065460761535845e1 1.078862608093270e1 1.092433029128175e1
      1.106174145046451e1 1.120088102925422e1 1.134177076849310e1 1.148443268248956e1
      1.162888906245795e1 1.177516248000148e1 1.192327579063929e1 1.207325213737745e1
      1.222511495432531e1 1.237888797035699e1 1.253459521281906e1 1.269226101128498e1
      1.285191000135650e1 1.301356712851315e1 1.317725765200996e1 1.334300714882421e1
      1.351084151765205e1 1.368078698295502e1 1.385287009905785e1 1.402711775429756e1
      1.420355717522476e1 1.438221593085797e1 1.456312193699119e1 1.474630346055598e1
      1.493178912403809e1 1.511960790994976e1 1.530978916535847e1 1.550236260647225e1
      1.569735832328309e1 1.589480678426850e1 1.609473884115215e1 1.629718573372477e1
      1.650217909472514e1 1.670975095478299e1 1.691993374742382e1 1.713276031413652e1
      1.734826390950521e1 1.756647820640505e1 1.778743730126390e1 1.801117571938995e1
      1.823772842036613e1 1.846713080351297e1 1.869941871341950e1 1.893462844554427e1
      1.917279675188649e1 1.941396084672851e1 1.965815841245088e1 1.990542760542000e1
      2.015580706195036e1 2.040933590434150e1 2.066605374699078e1 2.092600070258347e1
      2.118921738836018e1 2.145574493246362e1 2.172562498036485e1 2.199889970137034e1
      2.227561179521133e1 2.255580449871537e1 2.283952159256246e1 2.312680740812581e1
      2.341770683439849e1 2.371226532500777e1 2.401052890531703e1 2.431254417961755e1
      2.461835833841043e1 2.492801916578008e1 2.524157504686087e1 2.555907497539708e1
      2.588056856139854e1 2.620610603889218e1 2.653573827377109e1 2.686951677174271e1
      2.720749368637632e1 2.754972182725250e1 2.789625466821458e1 2.824714635572389e1
      2.860245171732060e1 2.896222627019023e1 2.932652622983868e1 2.969540851887589e1
      3.006893077590989e1 3.044715136455339e1 3.083012938254277e1 3.121792467097254e1
      3.161059782364558e1 3.200821019654076e1 3.241082391740043e1 3.281850189543746e1
      3.323130783116541e1 3.364930622635167e1 3.407256239409578e1 3.450114246903519e1
      3.493511341767845e1 3.537454304886925e1 3.581950002438158e1 3.627005386964799e1
      3.672627498462359e1 3.718823465478566e1 3.765600506227260e1 3.812965929716232e1
      3.860927136889255e1 3.909491621782541e1 3.958666972695645e1 4.008460873377205e1
      4.058881104225512e1 4.109935543504207e1 4.161632168573311e1 4.213979057135652e1
      4.266984388499078e1 4.320656444854461e1 4.375003612569789e1 4.430034383500604e1
      4.485757356316808e1 4.542181237846279e1 4.599314844435312e1 4.657167103326159e1
      4.715747054051988e1 4.775063849849267e1 4.835126759088028e1 4.895945166720047e1
      4.957528575745234e1 5.019886608696561e1 5.083029009143527e1 5.146965643214674e1
      5.211706501139165e1 5.277261698807749e1 5.343641479353454e1 5.410856214752021e1
      5.478916407442616e1 5.547832691968825e1 5.617615836640299e1 5.688276745215386e1
      5.759826458604790e1 5.832276156596810e1 5.905637159604167e1 5.979920930432812e1
      6.055139076073093e1 6.131303349513277e1 6.208425651576055e1 6.286518032778041e1
      6.365592695212660e1 6.445661994456815e1 6.526738441501394e1 6.608834704706211e1
      6.691963611779427e1 6.776138151781878e1 6.861371477156718e1 6.947676905784419e1
      7.035067923063810e1 7.123558184019145e1 7.213161515433716e1 7.303891918010375e1
      7.395763568559094e1 7.488790822212199e1 7.582988214667350e1 7.678370464458739e1
      7.774952475256980e1 7.872749338197730e1 7.971776334239806e1 8.072048936552823e1
      8.173582812934880e1 8.276393828260751e1 8.380498046960728e1 8.485911735530797e1
      8.592651365074282e1 8.700733613875428e1 8.810175370005540e1 8.920993733961637e1
      9.033206021338570e1 9.146829765534555e1 9.261882720490757e1 9.378382863465498e1
      9.496348397843107e1 9.615797755978353e1 9.736749602076477e1 9.859222835109479e1
      9.983236591769231e1
      </PP_R>
    <PP_RAB>
      3.454098354373167e-7 3.497545563140236e-7 3.541539270517356e-7 3.586086350610811e-7
      3.631193763992500e-7 3.676868558787534e-7 3.723117871775525e-7 3.769948929505724e-7
      3.817369049426176e-7 3.865385641027101e-7 3.914006206998624e-7 3.963238344403100e-7
      4.013089745862159e-7 4.063568200758700e-7 4.114681596454007e-7 4.166437919520146e-7
      4.218845256987890e-7 4.271911797610350e-7 4.325645833142453e-7 4.380055759636582e-7
      4.435150078754449e-7 4.490937399095504e-7 4.547426437542049e-7 4.604626020621269e-7
      4.662545085884398e-7 4.721192683303217e-7 4.780577976684146e-7 4.840710245100093e-7