<UPF version="2.0.1">
  <PP_INFO><![CDATA[
Generated using "atomic" code by A. Dal Corso  v.6.6
Author: ADC
Generation date: 21May2021
Pseudopotential type: USPP
Element: Au
Functional: PBESOL
    Suggested minimum cutoff for wavefunctions:  68. Ry
    Suggested minimum cutoff for charge density: 376. Ry
    The Pseudo was generated with a Scalar-Relativistic Calculation
    Local Potential by smoothing AE potential with Bessel fncs, cutoff radius:   1.8000
    Valence configuration:
    nl pn  l   occ       Rcut    Rcut US       E pseu
    5S  1  0  2.00      1.000      1.200    -7.969903
    6S  2  0  1.00      1.000      1.200    -0.426278
    5P  2  1  6.00      1.100      1.300    -4.395496
    6P  3  1  0.00      1.100      1.300    -0.051600
    5D  3  2 10.00      1.500      1.700    -0.507225
    4F  4  3 14.00      1.200      1.800    -5.967446
    Generation configuration:
    5S  1  0  2.00      1.000      1.200    -7.969940
    6S  2  0  1.00      1.000      1.200    -0.426282
    5P  2  1  6.00      1.100      1.300    -4.395525
    6P  3  1  0.00      1.100      1.300    -0.051600
    5D  3  2 10.00      1.500      1.700    -0.507238
    5D  3  2  0.00      1.500      1.700     0.050000
    4F  4  3 14.00      1.200      1.800    -5.967506
    4F  4  3  0.00      1.200      1.800     0.200000
    Pseudization used: troullier-martins
]]>
    <PP_INPUTFILE><![CDATA[
 &input
   title='Au',
   zed=79.,
   rel=1,
   config='[Xe] 4f14 6s1 6p0 5d10',
   iswitch=3,
   dft='PBESOL'
 /
 &inputp
   lpaw=.false.,
   pseudotype=3,
   file_pseudopw='Au.pbesol-spfn-rrkjus_psl.1.0.0.UPF',
   author='ADC',
   lloc=-1,
   rcloc=1.8,
   which_augfun='PSQ',
   rmatch_augfun_nc=.true.,
   nlcc=.true.,
   new_core_ps=.true.,
   rcore=1.2,
   tm=.true.
 /
8
5S  1  0  2.00  0.00  1.00  1.20  0.0
6S  2  0  1.00  0.00  1.00  1.20  0.0
5P  2  1  6.00  0.00  1.10  1.30  0.0
6P  3  1  0.00  0.00  1.10  1.30  0.0
5D  3  2 10.00  0.00  1.50  1.70  0.0
5D  3  2  0.00  0.05  1.50  1.70  0.0
4F  4  3 14.00  0.00  1.20  1.80  0.0
4F  4  3  0.00  0.20  1.20  1.80  0.0
]]></PP_INPUTFILE>
  </PP_INFO>
  <!--
 END OF HUMAN READABLE SECTION 
-->
  <PP_HEADER generated="Generated using &quot;atomic&quot; code by A. Dal Corso  v.6.6" author="ADC" date="21May2021" comment="" element="Au" pseudo_type="USPP" relativistic="scalar" is_ultrasoft="true" is_paw="false" is_coulomb="false" has_so="false" has_wfc="false" has_gipaw="false" paw_as_gipaw="false" core_correction="true" functional="PBESOL" z_valence="3.300000000000e1" total_psenergy="-1.114173350375e3" wfc_cutoff="6.829474409455e1" rho_cutoff="3.758502119752e2" l_max="3" l_max_rho="6" l_local="-1" mesh_size="1279" number_of_wfc="6" number_of_proj="8"/>
  <PP_MESH dx="1.250000000000e-2" mesh="1279" xmin="-7.000000000000e0" rmax="1.000000000000e2" zmesh="7.900000000000e1">
    <PP_R>
      1.154280969056350e-5 1.168800036289901e-5 1.183501730907066e-5 1.198388350077537e-5
      1.213462219865848e-5 1.228725695594821e-5 1.244181162213593e-5 1.259831034670267e-5
      1.275677758289254e-5 1.291723809153360e-5 1.307971694490680e-5 1.324423953066353e-5
      1.341083155579253e-5 1.357951905063667e-5 1.375032837296023e-5 1.392328621206732e-5
      1.409841959297220e-5 1.427575588062193e-5 1.445532278417224e-5 1.463714836131719e-5
      1.482126102267309e-5 1.500768953621788e-5 1.519646303178609e-5 1.538761100562044e-5
      1.558116332498077e-5 1.577715023281075e-5 1.597560235246348e-5 1.617655069248638e-5
      1.638002665146643e-5 1.658606202293620e-5 1.679468900034167e-5 1.700594018207249e-5
      1.721984857655562e-5 1.743644760741288e-5 1.765577111868352e-5 1.787785338011243e-5
      1.810272909250474e-5 1.833043339314805e-5 1.856100186130257e-5 1.879447052376059e-5
      1.903087586047560e-5 1.927025481026243e-5 1.951264477656899e-5 1.975808363332066e-5
      2.000660973083819e-5 2.025826190182993e-5 2.051307946745958e-5 2.077110224349020e-5
      2.103237054650549e-5 2.129692520020938e-5 2.156480754180473e-5 2.183605942845244e-5
      2.211072324381164e-5 2.238884190466229e-5 2.267045886761101e-5 2.295561813588120e-5
      2.324436426618870e-5 2.353674237570381e-5 2.383279814910098e-5 2.413257784569717e-5
      2.443612830667986e-5 2.474349696242617e-5 2.505473183991389e-5 2.536988157022581e-5
      2.568899539614853e-5 2.601212317986657e-5 2.633931541075353e-5 2.667062321326119e-5
      2.700609835490770e-5 2.734579325436651e-5 2.768976098965677e-5 2.803805530643692e-5
      2.839073062640257e-5 2.874784205578996e-5 2.910944539398653e-5 2.947559714224954e-5
      2.984635451253459e-5 3.022177543643511e-5 3.060191857423423e-5 3.098684332407067e-5
      3.137660983121973e-5 3.177127899749111e-5 3.217091249074505e-5 3.257557275452785e-5
      3.298532301782910e-5 3.340022730496103e-5 3.382035044556266e-5 3.424575808472945e-5
      3.467651669327048e-5 3.511269357809479e-5 3.555435689272801e-5 3.600157564796161e-5
      3.645441972263599e-5 3.691295987455908e-5 3.737726775156261e-5 3.784741590269697e-5
      3.832347778956728e-5 3.880552779781193e-5 3.929364124872542e-5 3.978789441102760e-5
      4.028836451278059e-5 4.079512975345604e-5 4.130826931615378e-5 4.182786337997445e-5
      4.235399313254774e-5 4.288674078271787e-5 4.342618957338905e-5 4.397242379453232e-5
      4.452552879635606e-5 4.508559100264215e-5 4.565269792424976e-5 4.622693817278916e-5
      4.680840147446749e-5 4.739717868410861e-5 4.799336179934946e-5 4.859704397501473e-5
      4.920831953767253e-5 4.982728400037320e-5 5.045403407757330e-5 5.108866770024757e-5
      5.173128403119072e-5 5.238198348051187e-5 5.304086772132378e-5 5.370803970562963e-5
      5.438360368040936e-5 5.506766520390847e-5 5.576033116213173e-5 5.646170978554432e-5
      5.717191066598311e-5 5.789104477378066e-5 5.861922447510438e-5 5.935656354951407e-5
      6.010317720774022e-5 6.085918210968590e-5 6.162469638265523e-5 6.239983963981079e-5
      6.318473299886351e-5 6.397949910099765e-5 6.478426213003358e-5 6.559914783183196e-5
      6.642428353394159e-5 6.725979816549462e-5 6.810582227735216e-5 6.896248806250283e-5
      6.982992937671862e-5 7.070828175946962e-5 7.159768245510262e-5 7.249827043428589e-5
      7.341018641572329e-5 7.433357288814245e-5 7.526857413255815e-5 7.621533624481719e-5
      7.717400715842580e-5 7.814473666766457e-5 7.912767645099446e-5 8.012298009475629e-5
      8.113080311716940e-5 8.215130299263146e-5 8.318463917632421e-5 8.423097312912876e-5
      8.529046834285403e-5 8.636329036578264e-5 8.744960682853840e-5 8.854958747027863e-5
      8.966340416521678e-5 9.079123094947718e-5 9.193324404828978e-5 9.308962190352453e-5
      9.426054520157392e-5 9.544619690158576e-5 9.664676226405016e-5 9.786242887974772e-5
      9.909338669906040e-5 1.003398280616518e-4 1.016019477265210e-4 1.028799429024331e-4
      1.041740132787346e-4 1.054843610565546e-4 1.068111909803991e-4 1.081547103701436e-4
      1.095151291534257e-4 1.108926598984485e-4 1.122875178471931e-4 1.136999209490521e-4
      1.151300898948838e-4 1.165782481514954e-4 1.180446219965611e-4 1.195294405539773e-4
      1.210329358296646e-4 1.225553427478189e-4 1.240968991876181e-4 1.256578460203925e-4
      1.272384271472606e-4 1.288388895372389e-4 1.304594832658323e-4 1.321004615541077e-4
      1.337620808082615e-4 1.354446006596826e-4 1.371482840055209e-4 1.388733970497657e-4
      1.406202093448393e-4 1.423889938337173e-4 1.441800268925744e-4 1.459935883739699e-4
      1.478299616505753e-4 1.496894336594509e-4 1.515722949468813e-4 1.534788397137734e-4
      1.554093658616257e-4 1.573641750390771e-4 1.593435726890380e-4 1.613478680964186e-4
      1.633773744364541e-4 1.654324088236390e-4 1.675132923612777e-4 1.696203501916560e-4
      1.717539115468473e-4 1.739143098001537e-4 1.761018825181977e-4 1.783169715136675e-4
      1.805599228987248e-4 1.828310871390870e-4 1.851308191087876e-4 1.874594781456254e-4
      1.898174281073129e-4 1.922050374283284e-4 1.946226791774865e-4 1.970707311162290e-4
      1.995495757576517e-4 2.020596004262737e-4 2.046011973185554e-4 2.071747635641827e-4
      2.097807012881172e-4 2.124194176734298e-4 2.150913250249251e-4 2.177968408335618e-4
      2.205363878416900e-4 2.233103941091033e-4 2.261192930799245e-4 2.289635236503331e-4
      2.318435302371415e-4 2.347597628472391e-4 2.377126771479039e-4 2.407027345380032e-4
      2.437304022200877e-4 2.467961532733923e-4 2.499004667277567e-4 2.530438276384738e-4
      2.562267271620810e-4 2.594496626331045e-4 2.627131376417689e-4 2.660176621126840e-4
      2.693637523845212e-4 2.727519312906933e-4 2.761827282410478e-4 2.796566793045879e-4
      2.831743272932354e-4 2.867362218466452e-4 2.903429195180878e-4 2.939949838614123e-4
      2.976929855191026e-4 3.014375023114415e-4 3.052291193267959e-4 3.090684290130384e-4
      3.129560312701190e-4 3.168925335437994e-4 3.208785509205689e-4 3.249147062237523e-4
      3.290016301108272e-4 3.331399611719660e-4 3.373303460298163e-4 3.415734394405378e-4
      3.458699043961084e-4 3.502204122279187e-4 3.546256427116687e-4 3.590862841735836e-4
      3.636030335979674e-4 3.681765967361073e-4 3.728076882165480e-4 3.774970316567558e-4
      3.822453597761835e-4 3.870534145107607e-4 3.919219471288215e-4 3.968517183484923e-4
      4.018434984565563e-4 4.068980674288110e-4 4.120162150519421e-4 4.171987410469286e-4
      4.224464551940010e-4 4.277601774591716e-4 4.331407381223548e-4 4.385889779071016e-4
      4.441057481119625e-4 4.496919107435059e-4 4.553483386510085e-4 4.610759156628383e-4
      4.668755367245572e-4 4.727481080387546e-4 4.786945472066467e-4 4.847157833714514e-4
      4.908127573635697e-4 4.969864218475926e-4 5.032377414711559e-4 5.095676930156690e-4
      5.159772655489395e-4 5.224674605797158e-4 5.290392922141763e-4 5.356937873143838e-4
      5.424319856587365e-4 5.492549401044351e-4 5.561637167519926e-4 5.631593951118168e-4
      5.702430682728838e-4 5.774158430735367e-4 5.846788402744320e-4 5.920331947336579e-4
      5.994800555840625e-4 6.070205864128035e-4 6.146559654431643e-4 6.223873857186529e-4
      6.302160552894170e-4 6.381431974010048e-4 6.461700506854990e-4 6.542978693550559e-4
      6.625279233978781e-4 6.708614987766558e-4 6.792998976294953e-4 6.878444384733861e-4
      6.964964564102184e-4 7.052573033353974e-4 7.141283481490803e-4 7.231109769700671e-4
      7.322065933523859e-4 7.414166185046021e-4 7.507424915118825e-4 7.601856695608600e-4
      7.697476281673161e-4 7.794298614067372e-4 7.892338821477651e-4 7.991612222885870e-4
      8.092134329962983e-4 8.193920849492729e-4 8.296987685825869e-4 8.401350943365271e-4
      8.507026929082249e-4 8.614032155064582e-4 8.722383341096529e-4 8.832097417271351e-4
      8.943191526636662e-4 9.055683027873066e-4 9.169589498006514e-4 9.284928735154701e-4
      9.401718761308089e-4 9.519977825145878e-4 9.639724404887383e-4 9.760977211179329e-4
      9.883755190019386e-4 1.000807752571654e-3 1.013396364388868e-3 1.026143321449788e-3
      1.039050615492390e-3 1.052120263307627e-3 1.065354307054562e-3 1.078754814579454e-3
      1.092323879738867e-3 1.106063622726840e-3 1.119976190406168e-3 1.134063756643857e-3
      1.148328522650792e-3 1.162772717325682e-3 1.177398597603335e-3 1.192208448807300e-3
      1.207204585006958e-3 1.222389349379100e-3 1.237765114574051e-3 1.253334283086409e-3
      1.269099287630427e-3 1.285062591520140e-3 1.301226689054259e-3 1.317594105905907e-3
      1.334167399517270e-3 1.350949159499192e-3 1.367942008035814e-3 1.385148600294291e-3
      1.402571624839671e-3 1.420213804054984e-3 1.438077894566630e-3 1.456166687675094e-3
      1.474483009791101e-3 1.493029722877248e-3 1.511809724895185e-3 1.530825950258439e-3
      1.550081370290911e-3 1.569578993691155e-3 1.589321867002498e-3 1.609313075089058e-3
      1.629555741617775e-3 1.650053029546477e-3 1.670808141618105e-3 1.691824320861146e-3
      1.713104851096363e-3 1.734653057449905e-3 1.756472306872852e-3 1.778566008667319e-3
      1.800937615019160e-3 1.823590621537383e-3 1.846528567800347e-3 1.869755037908821e-3
      1.893273661046014e-3 1.917088112044642e-3 1.941202111961120e-3 1.965619428657000e-3
      1.990343877387692e-3 2.015379321398612e-3 2.040729672528821e-3 2.066398891822259e-3
      2.092390990146665e-3 2.118710028820285e-3 2.145360120246458e-3 2.172345428556188e-3
      2.199670170258799e-3 2.227338614900778e-3 2.255355085732892e-3 2.283723960385707e-3
      2.312449671553605e-3 2.341536707687396e-3 2.370989613695659e-3 2.400812991654877e-3
      2.431011501528535e-3 2.461589861895236e-3 2.492552850686001e-3 2.523905305930825e-3
      2.555652126514627e-3 2.587798272942710e-3 2.620348768115858e-3 2.653308698115162e-3
      2.686683212996748e-3 2.720477527596464e-3 2.754696922344722e-3 2.789346744091569e-3
      2.824432406942150e-3 2.859959393102669e-3 2.895933253736994e-3 2.932359609834037e-3
      2.969244153086048e-3 3.006592646777952e-3 3.044410926687876e-3 3.082704901998998e-3
      3.121480556222869e-3 3.160743948134351e-3 3.200501212718310e-3 3.240758562128229e-3
      3.281522286656856e-3 3.322798755719081e-3 3.364594418847174e-3 3.406915806698530e-3
      3.449769532076109e-3 3.493162290961687e-3 3.537100863562120e-3 3.581592115368773e-3
      3.626642998230254e-3 3.672260551438675e-3 3.718451902829531e-3 3.765224269895452e-3
      3.812584960913954e-3 3.860541376089357e-3 3.909101008709114e-3 3.958271446314606e-3
      4.008060371886751e-3 4.058475565046466e-3 4.109524903270250e-3 4.161216363121066e-3
      4.213558021494680e-3 4.266558056881703e-3 4.320224750645493e-3 4.374566488316133e-3
      4.429591760900702e-3 4.485309166209984e-3 4.541727410201922e-3 4.598855308341918e-3
      4.656701786980283e-3 4.715275884747000e-3 4.774586753964013e-3 4.834643662075305e-3
      4.895455993094956e-3 4.957033249073405e-3 5.019385051582191e-3 5.082521143217301e-3
      5.146451389121510e-3 5.211185778525808e-3 5.276734426310233e-3 5.343107574584374e-3
      5.410315594287681e-3 5.478368986809969e-3 5.547278385632273e-3 5.617054557988352e-3
      5.687708406547110e-3 5.759250971116123e-3 5.831693430366659e-3 5.905047103580364e-3
      5.979323452417908e-3 6.054534082709926e-3 6.130690746270413e-3 6.207805342732992e-3
      6.285889921410250e-3 6.364956683176468e-3 6.445017982374042e-3 6.526086328743852e-3
      6.608174389379955e-3 6.691294990708831e-3 6.775461120493548e-3 6.860685929863130e-3
      6.946982735367425e-3 7.034365021057870e-3 7.122846440594381e-3 7.212440819378773e-3
      7.303162156715022e-3 7.395024627996658e-3 7.488042586921715e-3 7.582230567735516e-3
      7.677603287501689e-3 7.774175648401746e-3 7.871962740063548e-3 7.970979841919119e-3
      8.071242425592073e-3 8.172766157315090e-3 8.275566900377815e-3 8.379660717605496e-3
      8.485063873868857e-3 8.591792838625505e-3 8.699864288493320e-3 8.809295109856230e-3
      8.920102401502705e-3 9.032303477297505e-3 9.145915868886995e-3 9.260957328438504e-3
      9.377445831414150e-3 9.495399579379519e-3 9.614837002847707e-3 9.735776764159127e-3
      9.858237760397531e-3 9.982239126342744e-3 1.010780023746047e-2 1.023494071292978e-2
      1.036368041870864e-2 1.049403947063798e-2 1.062603823758490e-2 1.075969734462530e-2
      1.089503767626656e-2 1.103208037971087e-2 1.117084686815944e-2 1.131135882415843e-2
      1.145363820298684e-2 1.159770723608706e-2 1.174358843453865e-2 1.189130459257564e-2
      1.204087879114828e-2 1.219233440152939e-2 1.234569508896624e-2 1.250098481637826e-2
      1.265822784810127e-2 1.281744875367892e-2 1.297867241170163e-2 1.314192401369400e-2
      1.330722906805095e-2 1.347461340402354e-2 1.364410317575483e-2 1.381572486636648e-2
      1.398950529209681e-2 1.416547160649090e-2 1.434365130464337e-2 1.452407222749459e-2
      1.470676256618080e-2 1.489175086643913e-2 1.507906603306783e-2 1.526873733444280e-2
      1.546079440709076e-2 1.565526726032007e-2 1.585218628090969e-2 1.605158223785722e-2
      1.625348628718660e-2 1.645792997681635e-2 1.666494525148889e-2 1.687456445776207e-2
      1.708682034906334e-2 1.730174609080755e-2 1.751937526557914e-2 1.773974187837941e-2
      1.796288036193998e-2 1.818882558210285e-2 1.841761284326837e-2 1.864927789391159e-2
      1.888385693216799e-2 1.912138661148954e-2 1.936190404637189e-2 1.960544681815358e-2
      1.985205298088822e-2 2.010176106729043e-2 2.035461009475676e-2 2.061063957146217e-2
      2.086988950253327e-2 2.113240039629928e-2 2.139821327062142e-2 2.166736965930209e-2
      2.193991161857464e-2 2.221588173367467e-2 2.249532312549416e-2 2.277827945731911e-2
      2.306479494165203e-2 2.335491434712027e-2 2.364868300547117e-2 2.394614681865532e-2
      2.424735226599869e-2 2.455234641146525e-2 2.486117691101074e-2 2.517389202002902e-2
      2.549054060089211e-2 2.581117213058501e-2 2.613583670843655e-2 2.646458506394756e-2
      2.679746856471740e-2 2.713453922447038e-2 2.747584971118282e-2 2.782145335531270e-2
      2.817140415813252e-2 2.852575680016720e-2 2.888456664973803e-2 2.924788977161398e-2
      2.961578293577205e-2 2.998830362626761e-2 3.036551005021643e-2 3.074746114688973e-2
      3.113421659692342e-2 3.152583683164345e-2 3.192238304250822e-2 3.232391719066996e-2
      3.273050201665629e-2 3.314220105017344e-2 3.355907862003301e-2 3.398119986420345e-2
      3.440863073998791e-2 3.484143803433048e-2 3.527968937425129e-2 3.572345323741391e-2
      3.617279896282488e-2 3.662779676166786e-2 3.708851772827475e-2 3.755503385123378e-2
      3.802741802463838e-2 3.850574405947678e-2 3.899008669516495e-2 3.948052161122526e-2
      3.997712543911100e-2 4.047997577418069e-2 4.098915118782232e-2 4.150473123973004e-2
      4.202679649033609e-2 4.255542851339785e-2 4.309070990874453e-2 4.363272431518325e-2
      4.418155642356761e-2 4.473729199003130e-2 4.530001784938709e-2 4.586982192869545e-2
      4.644679326100312e-2 4.703102199925447e-2 4.762259943037867e-2 4.822161798955269e-2
      4.882817127464523e-2 4.944235406084120e-2 5.006426231545035e-2 5.069399321290290e-2
      5.133164514993261e-2 5.197731776095203e-2 5.263111193362039e-2 5.329312982460709e-2
      5.396347487555470e-2 5.464225182924107e-2 5.532956674594629e-2 5.602552702002452e-2
      5.673024139668436e-2 5.744381998898111e-2 5.816637429502139e-2 5.889801721538568e-2
      5.963886307076892e-2 6.038902761984307e-2 6.114862807734536e-2 6.191778313239248e-2
      6.269661296702676e-2 6.348523927499448e-2 6.428378528076052e-2 6.509237575876319e-2
      6.591113705290951e-2 6.674019709631760e-2 6.757968543130608e-2 6.842973322963503e-2
      6.929047331300260e-2 7.016204017379778e-2 7.104456999611588e-2 7.193820067703731e-2
      7.284307184817380e-2 7.375932489748709e-2 7.468710299137998e-2 7.562655109706737e-2
      7.657781600522721e-2 7.754104635293652e-2 7.851639264689712e-2 7.950400728695149e-2
      8.050404458989657e-2 8.151666081359576e-2 8.254201418139383e-2 8.358026490684093e-2
      8.463157521872498e-2 8.569610938642118e-2 8.677403374555928e-2 8.786551672401311e-2
      8.897072886821899e-2 9.008984286982274e-2 9.122303359266413e-2 9.237047810009919e-2
      9.353235568266648e-2 9.470884788610235e-2 9.590013853970694e-2 9.710641378506871e-2
      9.832786210514909e-2 9.956467435373282e-2 1.008170437852504e-1 1.020851660849731e-1
      1.033692393995905e-1 1.046694643681706e-1 1.059860441535097e-1 1.073191844738782e-1
      1.086690936351633e-1 1.100359825634178e-1 1.114200648378179e-1 1.128215567240347e-1
      1.142406772080270e-1 1.156776480302573e-1 1.171326937203404e-1 1.186060416321258e-1
      1.200979219792218e-1 1.216085678709685e-1 1.231382153488593e-1 1.246871034234251e-1
      1.262554741115788e-1 1.278435724744311e-1 1.294516466555824e-1 1.310799479198949e-1
      1.327287306927541e-1 1.343982525998229e-1 1.360887745072956e-1 1.378005605626601e-1
      1.395338782359697e-1 1.412889983616375e-1 1.430661951807543e-1 1.448657463839383e-1
      1.466879331547266e-1 1.485330402135090e-1 1.504013558620177e-1 1.522931720283739e-1
      1.542087843127022e-1 1.561484920333198e-1 1.581125982735040e-1 1.601014099288509e-1
      1.621152377552284e-1 1.641543964173308e-1 1.662192045378485e-1 1.683099847472505e-1
      1.704270637341989e-1 1.725707722965919e-1 1.747414453932544e-1 1.769394221962740e-1
      1.791650461439976e-1 1.814186649946956e-1 1.837006308808978e-1 1.860113003644170e-1
      1.883510344920614e-1 1.907201988520480e-1 1.931191636311289e-1 1.955483036724307e-1
      1.980079985340275e-1 2.004986325482460e-1 2.030205948817174e-1 2.055742795961881e-1
      2.081600857100894e-1 2.107784172608879e-1 2.134296833682158e-1 2.161142982977957e-1
      2.188326815261730e-1 2.215852578062568e-1 2.243724572336917e-1 2.271947153140589e-1
      2.300524730309249e-1 2.329461769147477e-1 2.358762791126458e-1 2.388432374590492e-1
      2.418475155472363e-1 2.448895828017698e-1 2.479699145518484e-1 2.510889921055738e-1
      2.542473028251603e-1 2.574453402030839e-1 2.606836039391903e-1 2.639626000187776e-1
      2.672828407916535e-1 2.706448450521942e-1 2.740491381204060e-1 2.774962519240059e-1
      2.809867250815401e-1 2.845211029865395e-1 2.880999378927434e-1 2.917237890003874e-1
      2.953932225435787e-1 2.991088118787753e-1 3.028711375743690e-1 3.066807875014048e-1
      3.105383569254351e-1 3.144444485995297e-1 3.183996728584607e-1 3.224046477140645e-1
      3.264599989518109e-1 3.305663602285822e-1 3.347243731716810e-1 3.389346874790906e-1
      3.431979610209861e-1 3.475148599425329e-1 3.518860587679708e-1 3.563122405060083e-1
      3.607940967565483e-1 3.653323278187473e-1 3.699276428004423e-1 3.745807597289491e-1
      3.792924056632535e-1 3.840633168076197e-1 3.888942386266194e-1 3.937859259616160e-1
      3.987391431487085e-1 4.037546641381582e-1 4.088332726153256e-1 4.139757621231161e-1
      4.191829361859786e-1 4.244556084354553e-1 4.297946027373108e-1 4.352007533202687e-1
      4.406749049063550e-1 4.462179128428929e-1 4.518306432361507e-1 4.575139730866701e-1
      4.632687904263043e-1 4.690959944569696e-1 4.749964956911519e-1 4.809712160941747e-1
      4.870210892282548e-1 4.931470603983800e-1 4.993500868000070e-1 5.056311376686321e-1
      5.119911944312333e-1 5.184312508596177e-1 5.249523132257065e-1 5.315554004587596e-1
      5.382415443045922e-1 5.450117894867843e-1 5.518671938699178e-1 5.588088286248770e-1
      5.658377783962134e-1 5.729551414716299e-1 5.801620299535887e-1 5.874595699330757e-1
      5.948489016655614e-1 6.023311797491608e-1 6.099075733050483e-1 6.175792661601323e-1
      6.253474570320277e-1 6.332133597163647e-1 6.411782032764388e-1 6.492432322352620e-1
      6.574097067700189e-1 6.656789029089677e-1 6.740521127308315e-1 6.825306445666780e-1
      6.911158232043574e-1 6.998089900954998e-1 7.086115035651160e-1 7.175247390238465e-1
      7.265500891828638e-1 7.356889642714935e-1 7.449427922575627e-1 7.543130190705188e-1
      7.638011088273679e-1 7.734085440614351e-1 7.831368259540239e-1 7.929874745689736e-1
      8.029620290901690e-1 8.130620480620500e-1 8.232891096331267e-1 8.336448118025784e-1
      8.441307726699394e-1 8.547486306879259e-1 8.655000449184586e-1 8.763866952918814e-1
      8.874102828694665e-1 8.985725301092018e-1 9.098751811349249e-1 9.213200020088575e-1
      9.329087810075423e-1 9.446433289012774e-1 9.565254792370466e-1 9.685570886250112e-1
      9.807400370286199e-1 9.930762280583437e-1 1.005567589269131e0 1.018216072461586e0
      1.031023653986938e0 1.043992335055862e0 1.057124142051155e0 1.070421126844380e0
      1.083885367116464e0 1.097518966682341e0 1.111324055819683e0 1.125302791601751e0
      1.139457358234453e0 1.153789967397626e0 1.168302858590606e0 1.182998299482174e0
      1.197878586264863e0 1.212946044013758e0 1.228203027049790e0 1.243651919307596e0
      1.259295134708025e0 1.275135117535305e0 1.291174342818983e0 1.307415316720644e0
      1.323860576925497e0 1.340512693038912e0 1.357374266987906e0 1.374447933427716e0
      1.391736360153463e0 1.409242248516992e0 1.426968333848979e0 1.444917385886317e0
      1.463092209204907e0 1.481495643657872e0 1.500130564819283e0 1.518999884433488e0
      1.538106550870063e0 1.557453549584513e0 1.577043903584753e0 1.596880673903445e0
      1.616966960076317e0 1.637305900626443e0 1.657900673554666e0 1.678754496836160e0
      1.699870628923235e0 1.721252369254495e0 1.742903058770364e0 1.764826080435129e0
      1.787024859765532e0 1.809502865366000e0 1.832263609470647e0 1.855310648492040e0
      1.878647583576919e0 1.902278061168873e0 1.926205773578096e0 1.950434459558341e0
      1.974967904891077e0 1.999809942977056e0 2.024964455435275e0 2.050435372709473e0
      2.076226674682303e0 2.102342391297166e0 2.128786603187917e0 2.155563442316470e0
      2.182677092618409e0 2.210131790656765e0 2.237931826283955e0 2.266081543312110e0
      2.294585340191790e0 2.323447670699240e0 2.352673044632333e0 2.382266028515196e0
      2.412231246311772e0 2.442573380148311e0 2.473297171044949e0 2.504407419656528e0
      2.535908987022681e0 2.567806795327404e0 2.600105828668144e0 2.632811133834565e0
      2.665927821097149e0 2.699461065005646e0 2.733416105197647e0 2.767798247217268e0
      2.802612863344141e0 2.837865393432877e0 2.873561345763014e0 2.909706297899732e0
      2.946305897565345e0 2.983365863521755e0 3.020891986464049e0 3.058890129925276e0
      3.097366231192663e0 3.136326302235321e0 3.175776430643602e0 3.215722780580345e0
      3.256171593743987e0 3.297129190343883e0 3.338601970087839e0 3.380596413182052e0
      3.423119081343709e0 3.466176618826210e0 3.509775753457392e0 3.553923297690754e0
      3.598626149669885e0 3.643891294306372e0 3.689725804371141e0 3.736136841599649e0
      3.783131657810893e0 3.830717596040504e0 3.878902091688159e0 3.927692673679322e0
      3.977096965641699e0 4.027122687096432e0 4.077777654664260e0 4.129069783286941e0
      4.181007087463910e0 4.233597682504620e0 4.286849785796552e0 4.340771718089170e0
      4.395371904794115e0 4.450658877301630e0 4.506641274313660e0 4.563327843193642e0
      4.620727441333277e0 4.678849037536573e0 4.737701713421167e0 4.797294664837412e0
      4.857637203305218e0 4.918738757468972e0 4.980608874570842e0 5.043257221942480e0
      5.106693588515634e0 5.170927886351652e0 5.235970152190238e0 5.301830549017776e0
      5.368519367655248e0 5.436047028366252e0 5.504424082485173e0 5.573661214065809e0
      5.643769241550856e0 5.714759119462221e0 5.786641940112772e0 5.859428935339488e0
      5.933131478258443e0 6.007761085041936e0 6.083329416717840e0 6.159848280991737e0
      6.237329634091858e0 6.315785582637241e0 6.395228385529487e0 6.475670455868155e0
      6.557124362890405e0 6.639602833934942e0 6.723118756430647e0 6.807685179910347e0
      6.893315318049740e0 6.980022550732136e0 7.067820426139063e0 7.156722662867154e0
      7.246743152071796e0 7.337895959637549e0 7.430195328376061e0 7.523655680251497e0
      7.618291618633952e0 7.714117930581368e0 7.811149589149919e0 7.909401755733683e0
      8.008889782433595e0 8.109629214456213e0 8.211635792542772e0 8.314925455428606e0
      8.419514342333693e0 8.525418795484423e0 8.632655362667032e0 8.741240799813346e0
      8.851192073618808e0 8.962526364193662e0 9.075261067747340e0 9.189413799306600e0
      9.305002395468025e0 9.422044917184898e0 9.540559652589383e0 9.660565119850022e0
      9.782080070065190e0 9.905123490193121e0 1.002971460601851e1 1.015587288515670e1
      1.028361804009549e1 1.041297003127522e1 1.054394907020771e1 1.067657562263422e1
      1.081087041172344e1 1.094685442130939e1 1.108454889917020e1 1.122397536034822e1
      1.136515559051163e1 1.150811164935864e1 1.165286587406432e1 1.179944088277074e1
      1.194785957812126e1 1.209814515083896e1 1.225032108335034e1 1.240441115345448e1
      1.256043943803831e1 1.271843031683876e1 1.287840847625204e1 1.304039891319106e1
      1.320442693899119e1 1.337051818336513e1 1.353869859840777e1 1.370899446265109e1
      1.388143238517036e1 1.405603930974184e1 1.423284251905267e1 1.441186963896407e1
      1.459314864282771e1 1.477670785585678e1 1.496257595955180e1 1.515078199618207e1
      1.534135537332378e1 1.553432586845477e1 1.572972363360754e1 1.592757920008046e1
      1.612792348320828e1 1.633078778719289e1 1.653620380999446e1 1.674420364828453e1
      1.695481980246100e1 1.716808518172644e1 1.738403310923029e1 1.760269732727551e1
      1.782411200259108e1 1.804831173167053e1 1.827533154617760e1 1.850520691842025e1
      1.873797376689299e1 1.897366846188952e1 1.921232783118548e1 1.945398916579281e1
      1.969869022578679e1 1.994646924620580e1 2.019736494302594e1 2.045141651921032e1
      2.070866367083452e1 2.096914659328943e1 2.123290598756156e1 2.149998306659294e1
      2.177041956172056e1 2.204425772919693e1 2.232154035679291e1 2.260231077048313e1
      2.288661284121599e1 2.317449099176851e1 2.346599020368732e1 2.376115602431743e1
      2.406003457391874e1 2.436267255287275e1 2.466911724897943e1 2.497941654484593e1
      2.529361892536862e1 2.561177348530862e1 2.593392993696327e1 2.626013861793359e1
      2.659045049898959e1 2.692491719203479e1 2.726359095817038e1 2.760652471586138e1
      2.795377204920520e1 2.830538721630404e1 2.866142515774325e1 2.902194150517543e1
      2.938699259001338e1 2.975663545223187e1 3.013092784928007e1 3.050992826510663e1
      3.089369591929748e1 3.128229077632943e1 3.167577355493956e1 3.207420573761246e1
      3.247764958018738e1 3.288616812158545e1 3.329982519365995e1 3.371868543117003e1
      3.414281428187987e1 3.457227801678541e1 3.500714374046886e1 3.544747940158435e1
      3.589335380347485e1 3.634483661492268e1 3.680199838103579e1 3.726491053427013e1
      3.773364540559150e1 3.820827623577726e1 3.868887718686012e1 3.917552335371663e1
      3.966829077580032e1 4.016725644902349e1 4.067249833778781e1 4.118409538716619e1
      4.170212753523855e1 4.222667572558188e1 4.275782191991816e1 4.329564911092098e1
      4.384024133518298e1 4.439168368634734e1 4.495006232840320e1 4.551546450914947e1
      4.608797857382732e1 4.666769397892398e1 4.725470130615108e1 4.784909227659762e1