<UPF version="2.0.1">
  <PP_INFO><![CDATA[
Generated using "atomic" code by A. Dal Corso  v.6.6
Author: ADC
Generation date: 21May2021
Pseudopotential type: USPP
Element:  C
Functional: PBESOL
    Suggested minimum cutoff for wavefunctions:  40. Ry
    Suggested minimum cutoff for charge density: 326. Ry
    The Pseudo was generated with a Fully-Relativistic Calculation
    Local Potential by smoothing AE potential with Bessel fncs, cutoff radius:   1.0000
    Pseudopotential contains additional information for spin-orbit calculations.
    Valence configuration:
    nl pn  l   occ       Rcut    Rcut US       E pseu
    2S  1  0  2.00      1.000      1.200    -1.002837
    2P  2  1  2.00      0.900      1.400    -0.384803
    2P  2  1  0.00      0.900      1.400    -0.384173
    Generation configuration:
    2S  1  0  2.00      1.000      1.200    -1.002828
    2S  1  0  0.00      1.000      1.200     3.000000
    2P  2  1  2.00      0.900      1.400    -0.384805
    2P  2  1  0.00      0.900      1.400    -0.384168
    2P  2  1  0.00      0.900      1.400     0.050000
    2P  2  1  0.00      0.900      1.400     0.050000
    Pseudization used: troullier-martins
]]>
    <PP_INPUTFILE><![CDATA[
 &input
   title='C',
   zed=6.,
   rel=2,
   config='[He] 2s2 2p2',
   iswitch=3,
   dft='PBESOL'
 /
 &inputp
   lpaw=.false.,
   pseudotype=3,
   file_pseudopw='C.rel-pbesol-n-rrkjus_psl.1.0.0.UPF',
   author='ADC',
   lloc=-1,
   rcloc=1.0
   which_augfun='PSQ',
   rmatch_augfun_nc=.true.,
   nlcc=.true.,
   new_core_ps=.true.,
   rcore=0.7,
   tm=.true.
 /
4
2S  1  0  2.00  0.00  1.00  1.20  0.0
2S  1  0  0.00  3.00  1.00  1.20  0.0
2P  2  1  2.00  0.00  0.90  1.40  0.0
2P  2  1  0.00  0.05  0.90  1.40  0.0
]]></PP_INPUTFILE>
  </PP_INFO>
  <!--
 END OF HUMAN READABLE SECTION 
-->
  <PP_HEADER generated="Generated using &quot;atomic&quot; code by A. Dal Corso  v.6.6" author="ADC" date="21May2021" comment="" element=" C" pseudo_type="USPP" relativistic="full" is_ultrasoft="true" is_paw="false" is_coulomb="false" has_so="true" has_wfc="false" has_gipaw="false" paw_as_gipaw="false" core_correction="true" functional="PBESOL" z_valence="4.000000000000e0" total_psenergy="-1.165851795114e1" wfc_cutoff="4.013096192108e1" rho_cutoff="3.255063863708e2" l_max="1" l_max_rho="2" l_local="-1" mesh_size="1073" number_of_wfc="3" number_of_proj="6"/>
  <PP_MESH dx="1.250000000000e-2" mesh="1073" xmin="-7.000000000000e0" rmax="1.000000000000e2" zmesh="6.000000000000e0">
    <PP_R>
      1.519803275924194e-4 1.538920047781704e-4 1.558277279027637e-4 1.577877994268757e-4
      1.597725256156700e-4 1.617822165866515e-4 1.638171863581231e-4 1.658777528982519e-4
      1.679642381747517e-4 1.700769682051925e-4 1.722162731079395e-4 1.743824871537364e-4
      1.765759488179350e-4 1.787970008333828e-4 1.810459902439763e-4 1.833232684588864e-4
      1.856291913074672e-4 1.879641190948554e-4 1.903284166582679e-4 1.927224534240096e-4
      1.951466034651958e-4 1.976012455602021e-4 2.000867632518502e-4 2.026035449073357e-4
      2.051519837789135e-4 2.077324780653416e-4 2.103454309741024e-4 2.129912507844041e-4
      2.156703509109747e-4 2.183831499686600e-4 2.211300718378320e-4 2.239115457306212e-4
      2.267280062579824e-4 2.295798934976029e-4 2.324676530626665e-4 2.353917361714803e-4
      2.383525997179791e-4 2.413507063431159e-4 2.443865245071505e-4 2.474605285628478e-4
      2.505731988295954e-4 2.537250216684553e-4 2.569164895581584e-4 2.601481011720553e-4
      2.634203614560362e-4 2.667337817074273e-4 2.700888796548844e-4 2.734861795392876e-4
      2.769262121956557e-4 2.804095151360902e-4 2.839366326337623e-4 2.875081158079571e-4
      2.911245227101866e-4 2.947864184113867e-4 2.984943750902116e-4 3.022489721224359e-4
      3.060507961714846e-4 3.099004412801002e-4 3.137985089631629e-4 3.177456083016794e-4
      3.217423560379515e-4 3.257893766719445e-4 3.298873025588661e-4 3.340367740079731e-4
      3.382384393826223e-4 3.424929552015765e-4 3.468009862415882e-4 3.511632056412723e-4
      3.555802950062847e-4 3.600529445158258e-4 3.645818530304808e-4 3.691677282014195e-4
      3.738112865809673e-4 3.785132537345679e-4 3.832743643541561e-4 3.880953623729523e-4
      3.929770010817055e-4 3.979200432463956e-4 4.029252612274173e-4 4.079934371002639e-4
      4.131253627777264e-4 4.183218401336331e-4 4.235836811281430e-4 4.289117079346167e-4
      4.343067530680830e-4 4.397696595153203e-4 4.453012808665751e-4 4.509024814489377e-4
      4.565741364613948e-4 4.623171321115814e-4 4.681323657542522e-4 4.740207460314946e-4
      4.799831930147072e-4 4.860206383483613e-4 4.921340253955744e-4 4.983243093855100e-4
      5.045924575626359e-4 5.109394493378571e-4 5.173662764415514e-4 5.238739430785301e-4
      5.304634660849445e-4 5.371358750871710e-4 5.438922126626915e-4 5.507335345029968e-4
      5.576609095785454e-4 5.646754203057852e-4 5.717781627162890e-4 5.789702466280090e-4
      5.862527958186881e-4 5.936269482014549e-4 6.010938560026218e-4 6.086546859417239e-4
      6.163106194138220e-4 6.240628526740966e-4 6.319125970247680e-4 6.398610790043606e-4
      6.479095405793550e-4 6.560592393382471e-4 6.643114486880485e-4 6.726674580532598e-4
      6.811285730773443e-4 6.896961158267394e-4 6.983714249974299e-4 7.071558561241233e-4
      7.160507817920568e-4 7.250575918514615e-4 7.341776936347343e-4 7.434125121763336e-4
      7.527634904354443e-4 7.622320895214456e-4 7.718197889222076e-4 7.815280867352685e-4
      7.913584999019130e-4 8.013125644441976e-4 8.113918357049604e-4 8.215978885908420e-4
      8.319323178183694e-4 8.423967381631357e-4 8.529927847121087e-4 8.637221131191207e-4
      8.745863998635640e-4 8.855873425123459e-4 8.967266599851367e-4 9.080060928229541e-4
      9.194274034601285e-4 9.309923764996832e-4 9.427028189921847e-4 9.545605607180974e-4
      9.665674544736902e-4 9.787253763605420e-4 9.910362260786822e-4 1.003501927223427e-3
      1.016124427585940e-3 1.028905699457584e-3 1.041847739938093e-3 1.054952571247625e-3
      1.068222241042731e-3 1.081658822736314e-3 1.095264415821602e-3 1.109041146200196e-3
      1.122991166514244e-3 1.137116656482805e-3 1.151419823242422e-3 1.165902901692002e-3
      1.180568154842021e-3 1.195417874168116e-3 1.210454379969149e-3 1.225680021729739e-3
      1.241097178487390e-3 1.256708259204212e-3 1.272515703143327e-3 1.288521980250012e-3
      1.304729591537629e-3 1.321141069478416e-3 1.337758978399194e-3 1.354585914882035e-3
      1.371624508170005e-3 1.388877420577968e-3 1.406347347908589e-3 1.424037019873558e-3
      1.441949200520106e-3 1.460086688662905e-3 1.478452318321376e-3 1.497048959162519e-3
      1.515879516949304e-3 1.534946933994690e-3 1.554254189621388e-3 1.573804300627368e-3
      1.593600321757251e-3 1.613645346179615e-3 1.633942505970305e-3 1.654494972601835e-3
      1.675305957438931e-3 1.696378712240311e-3 1.717716529666791e-3 1.739322743795751e-3
      1.761200730642109e-3 1.783353908685821e-3 1.805785739406025e-3 1.828499727821915e-3
      1.851499423040384e-3 1.874788418810611e-3 1.898370354085563e-3 1.922248913590603e-3
      1.946427828399242e-3 1.970910876516103e-3 1.995701883467270e-3 2.020804722898016e-3
      2.046223317178073e-3 2.071961638014516e-3 2.098023707072333e-3 2.124413596602845e-3
      2.151135430079979e-3 2.178193382844580e-3 2.205591682756824e-3 2.233334610856805e-3
      2.261426502033489e-3 2.289871745702024e-3 2.318674786489603e-3 2.347840124929956e-3
      2.377372318166543e-3 2.407275980664647e-3 2.437555784932370e-3 2.468216462250733e-3
      2.499262803412953e-3 2.530699659472991e-3 2.562531942503572e-3 2.594764626363682e-3
      2.627402747475748e-3 2.660451405612604e-3 2.693915764694312e-3 2.727801053595071e-3
      2.762112566960209e-3 2.796855666033493e-3 2.832035779494847e-3 2.867658404308564e-3
      2.903729106582253e-3 2.940253522436527e-3 2.977237358885672e-3 3.014686394729385e-3
      3.052606481455697e-3 3.091003544155314e-3 3.129883582447401e-3 3.169252671417043e-3
      3.209116962564489e-3 3.249482684766333e-3 3.290356145248797e-3 3.331743730573238e-3
      3.373651907634065e-3 3.416087224669210e-3 3.459056312283290e-3 3.502565884483672e-3
      3.546622739729529e-3 3.591233761994128e-3 3.636405921840462e-3 3.682146277510407e-3
      3.728461976027600e-3 3.775360254314162e-3 3.822848440321489e-3 3.870933954175262e-3
      3.919624309334852e-3 3.968927113767313e-3 4.018850071136145e-3 4.069400982005006e-3
      4.120587745056566e-3 4.172418358326691e-3 4.224900920454157e-3 4.278043631946073e-3
      4.331854796459225e-3 4.386342822097552e-3 4.441516222725914e-3 4.497383619300415e-3
      4.553953741215428e-3 4.611235427667597e-3 4.669237629036971e-3 4.727969408285516e-3
      4.787439942373239e-3 4.847658523692080e-3 4.908634561517882e-3 4.970377583480619e-3
      5.032897237053083e-3 5.096203291058349e-3 5.160305637196148e-3 5.225214291588482e-3
      5.290939396344659e-3 5.357491221146011e-3 5.424880164850572e-3 5.493116757117895e-3
      5.562211660054346e-3 5.632175669879093e-3 5.703019718611005e-3 5.774754875776837e-3
      5.847392350140840e-3 5.920943491456161e-3 5.995419792238278e-3 6.070832889560705e-3
      6.147194566873335e-3 6.224516755843603e-3 6.302811538220848e-3 6.382091147724110e-3
      6.462367971953668e-3 6.543654554326636e-3 6.625963596036887e-3 6.709307958039643e-3
      6.793700663061037e-3 6.879154897632924e-3 6.965684014153320e-3 7.053301532972720e-3
      7.142021144506698e-3 7.231856711375062e-3 7.322822270567904e-3 7.414932035638921e-3
      7.508200398926304e-3 7.602641933801568e-3 7.698271396946687e-3 7.795103730659831e-3
      7.893154065190155e-3 7.992437721101913e-3 8.092970211668328e-3 8.194767245295596e-3
      8.297844727977324e-3 8.402218765779896e-3 8.507905667359069e-3 8.614921946508236e-3
      8.723284324738731e-3 8.833009733892633e-3 8.944115318788358e-3 9.056618439899584e-3
      9.170536676067876e-3 9.285887827249400e-3 9.402689917296225e-3 9.520961196772550e-3
      9.640720145806414e-3 9.761985476977259e-3 9.884776138239786e-3 1.000911131588466e-2
      1.013501043753633e-2 1.026249317518871e-2 1.039157944827891e-2 1.052228942679973e-2
      1.065464353445126e-2 1.078866245183209e-2 1.092436711967073e-2 1.106177874209761e-2
      1.120091878995829e-2 1.134180900416837e-2 1.148447139911043e-2 1.162892826607394e-2
      1.177520217673827e-2 1.192331598669954e-2 1.207329283904191e-2 1.222515616795369e-2
      1.237892970238898e-2 1.253463746977541e-2 1.269230379976839e-2 1.285195332805278e-2
      1.301361100019219e-2 1.317730207552678e-2 1.334305213112010e-2 1.351088706575554e-2
      1.368083310398313e-2 1.385291680021709e-2 1.402716504288507e-2 1.420360505862948e-2
      1.438226441656175e-2 1.456317103257007e-2 1.474635317368122e-2 1.493183946247745e-2
      1.511965888156876e-2 1.530984077812148e-2 1.550241486844391e-2 1.569741124262945e-2
      1.589486036925828e-2 1.609479310015814e-2 1.629724067522501e-2 1.650223472730439e-2
      1.670980728713396e-2 1.691999078834852e-2 1.713281807254774e-2 1.734832239442777e-2
      1.756653742697739e-2 1.778749726673937e-2 1.801123643913822e-2 1.823778990387483e-2
      1.846719306038900e-2 1.869948175339062e-2 1.893469227846063e-2 1.917286138772207e-2
      1.941402629558284e-2 1.965822468455043e-2 1.990549471111994e-2 2.015587501173612e-2
      2.040940470883032e-2 2.066612341693355e-2 2.092607124886622e-2 2.118928882200593e-2
      2.145581726463404e-2 2.172569822236195e-2 2.199897386463838e-2 2.227568689133842e-2
      2.255588053943545e-2 2.283959858975708e-2 2.312688537382588e-2 2.341778578078636e-2
      2.371234526441894e-2 2.401060985024221e-2 2.431262614270457e-2 2.461844133246614e-2
      2.492810320377252e-2 2.524166014192111e-2 2.555916114082141e-2 2.588065581065051e-2
      2.620619438560461e-2 2.653582773174839e-2 2.686960735496281e-2 2.720758540899307e-2
      2.754981470359776e-2 2.789634871280043e-2 2.824724158324503e-2 2.860254814265648e-2
      2.896232390840752e-2 2.932662509619359e-2 2.969550862881642e-2 3.006903214507848e-2
      3.044725400878913e-2 3.083023331788405e-2 3.121802991365951e-2 3.161070439012255e-2
      3.200831810345903e-2 3.241093318162061e-2 3.281861253403235e-2 3.323141986142253e-2
      3.364941966577591e-2 3.407267726041235e-2 3.450125878019214e-2 3.493523119184964e-2
      3.537466230445718e-2 3.581962078002010e-2 3.627017614420550e-2 3.672639879720566e-2
      3.718836002473831e-2 3.765613200918515e-2 3.812978784087042e-2 3.860940152948148e-2
      3.909504801563297e-2 3.958680318257635e-2 4.008474386805703e-2 4.058894787632013e-2
      4.109949399026776e-2 4.161646198376896e-2 4.213993263412441e-2 4.266998773468835e-2
      4.320671010764860e-2 4.375018361696790e-2 4.430049318148780e-2 4.485772478819730e-2
      4.542196550566877e-2 4.599330349766221e-2 4.657182803690124e-2 4.715762951902217e-2
      4.775079947669835e-2 4.835143059394256e-2 4.895961672058882e-2 4.957545288695679e-2
      5.019903531870038e-2 5.083046145184321e-2 5.146982994800332e-2 5.211724070980898e-2
      5.277279489650891e-2 5.343659493977848e-2 5.410874455972495e-2 5.478934878109403e-2
      5.547851394967994e-2 5.617634774894241e-2 5.688295921683232e-2 5.759845876282909e-2
      5.832295818519258e-2 5.905657068843148e-2 5.979941090099197e-2 6.055159489316858e-2
      6.131324019524039e-2 6.208446581583551e-2 6.286539226052618e-2 6.365614155065819e-2
      6.445683724241692e-2 6.526760444613316e-2 6.608856984583216e-2 6.691986171902780e-2
      6.776160995676656e-2 6.861394608392313e-2 6.947700327975140e-2 7.035091639869426e-2
      7.123582199145446e-2 7.213185832633124e-2 7.303916541082494e-2 7.395788501351332e-2
      7.488816068620362e-2 7.583013778636229e-2 7.678396349982767e-2 7.774978686380811e-2
      7.872775879016912e-2 7.971803208901402e-2 8.072076149256045e-2 8.173610367931772e-2
      8.276421729856832e-2 8.380526299515683e-2 8.485940343459154e-2 8.592680332846070e-2
      8.700762946016939e-2 8.810205071099963e-2 8.921023808649837e-2 9.033236474319787e-2
      9.146860601567109e-2 9.261913944392862e-2 9.378414480115936e-2 9.496380412182049e-2
      9.615830173008112e-2 9.736782426862266e-2 9.859256072780259e-2 9.983270247518428e-2
      1.010884432854389e-1 1.023599793706230e-1 1.036475094108367e-1 1.049512345852684e-1
      1.062713586036290e-1 1.076080877379820e-1 1.089616308549746e-1 1.103321994484724e-1
      1.117200076726066e-1 1.131252723752358e-1 1.145482131318287e-1 1.159890522797737e-1
      1.174480149531189e-1 1.189253291177505e-1 1.204212256070121e-1 1.219359381577736e-1
      1.234697034469530e-1 1.250227611284970e-1 1.265953538708282e-1 1.281877273947618e-1
      1.298001305119008e-1 1.314328151635128e-1 1.330860364598962e-1 1.347600527202421e-1
      1.364551255129971e-1 1.381715196967334e-1 1.399095034615346e-1 1.416693483708998e-1
      1.434513294041764e-1 1.452557249995264e-1 1.470828170974326e-1 1.489328911847526e-1
      1.508062363393266e-1 1.527031452751464e-1 1.546239143880923e-1 1.565688438022460e-1
      1.585382374167857e-1 1.605324029534704e-1 1.625516520047222e-1 1.645963000823137e-1
      1.666666666666667e-1 1.687630752567725e-1 1.708858534207382e-1 1.730353328469709e-1
      1.752118493960041e-1 1.774157431529766e-1 1.796473584807720e-1 1.819070440738253e-1
      1.841951530126080e-1 1.865120428187969e-1 1.888580755111377e-1 1.912336176620121e-1
      1.936390404547139e-1 1.960747197414485e-1 1.985410361020598e-1 2.010383749034968e-1
      2.035671263600284e-1 2.061276855942142e-1 2.087204526986442e-1 2.113458327984534e-1
      2.140042361146236e-1 2.166960780280819e-1 2.194217791446037e-1 2.221817653605339e-1
      2.249764679293340e-1 2.278063235289661e-1 2.306717743301253e-1 2.335732680653289e-1
      2.365112580988763e-1 2.394862034976875e-1 2.424985691030336e-1 2.455488256031693e-1
      2.486374496068785e-1 2.517649237179456e-1 2.549317366105633e-1 2.581383831056889e-1
      2.613853642483615e-1 2.646731873859907e-1 2.680023662476306e-1 2.713734210242518e-1
      2.747868784500214e-1 2.782432718846072e-1 2.817431413965153e-1 2.852870338474776e-1
      2.888755029778994e-1 2.925091094933831e-1 2.961884211523398e-1 2.999140128547015e-1
      3.036864667317516e-1 3.075063722370835e-1 3.113743262387037e-1 3.152909331122950e-1
      3.192568048356494e-1 3.232725610842925e-1 3.273388293283081e-1 3.314562449303820e-1
      3.356254512450795e-1 3.398470997193693e-1 3.441218499944146e-1 3.484503700086428e-1
      3.528333361021125e-1 3.572714331221933e-1 3.617653545305739e-1 3.663158025116172e-1
      3.709234880820782e-1 3.755891312022015e-1 3.803134608882173e-1 3.850972153262508e-1
      3.899411419876653e-1 3.948459977458569e-1 3.998125489945163e-1 4.048415717673814e-1
      4.099338518594918e-1 4.150901849499721e-1 4.203113767263583e-1 4.255982430104878e-1
      4.309516098859745e-1 4.363723138272836e-1 4.418612018304346e-1 4.474191315453454e-1
      4.530469714098409e-1 4.587456007853512e-1 4.645159100943086e-1 4.703588009592832e-1
      4.762751863438609e-1 4.822659906952936e-1 4.883321500889508e-1 4.944746123745781e-1
      5.006943373244054e-1 5.069922967831110e-1 5.133694748196719e-1 5.198268678811325e-1
      5.263654849482949e-1 5.329863476933791e-1 5.396904906396606e-1 5.464789613231122e-1
      5.533528204560919e-1 5.603131420930717e-1 5.673610137984696e-1 5.744975368165796e-1
      5.817238262436403e-1 5.890410112020788e-1 5.964502350169301e-1 6.039526553944902e-1
      6.115494446032078e-1 6.192417896568506e-1 6.270308924999858e-1 6.349179701957771e-1
      6.429042551161622e-1 6.509909951344092e-1 6.591794538200962e-1 6.674709106365548e-1
      6.758666611407794e-1 6.843680171858685e-1 6.929763071260018e-1 7.016928760239933e-1
      7.105190858614704e-1 7.194563157516741e-1 7.285059621549594e-1 7.376694390969897e-1
      7.469481783896774e-1 7.563436298549179e-1 7.658572615511150e-1 7.754905600025781e-1
      7.852450304317907e-1 7.951221969946004e-1 8.051236030183805e-1 8.152508112431677e-1
      8.255054040658521e-1 8.358889837874271e-1 8.464031728633469e-1 8.570496141570485e-1
      8.678299711966417e-1 8.787459284348483e-1 8.897991915121967e-1 9.009914875235278e-1
      9.123245652878676e-1 9.238001956216706e-1 9.354201716155258e-1 9.471863089143246e-1
      9.591004460009550e-1 9.711644444835800e-1 9.833801893865029e-1 9.957495894447202e-1
      1.008274577402158e0 1.020957110313664e0 1.033799169850812e0 1.046802762611528e0
      1.059969920433638e0 1.073302700712344e0 1.086803186721685e0 1.100473487940072e0
      1.114315740379879e0 1.128332106921212e0 1.142524777649864e0 1.156895970199506e0
      1.171447930098217e0 1.186182931119333e0 1.201103275636744e0 1.216211294984640e0
      1.231509349821775e0 1.246999830500348e0 1.262685157439475e0 1.278567781503405e0
      1.294650184384463e0 1.310934878990815e0 1.327424409839130e0 1.344121353452146e0
      1.361028318761274e0 1.378147947514246e0 1.395482914687878e0 1.413035928906064e0
      1.430809732862983e0 1.448807103751667e0 1.467030853697936e0 1.485483830199789e0
      1.504168916572355e0 1.523089032398388e0 1.542247133984482e0 1.561646214822989e0
      1.581289306059754e0 1.601179476967752e0 1.621319835426648e0 1.641713528408430e0
      1.662363742469121e0 1.683273704246676e0 1.704446680965168e0 1.725885980945282e0
      1.747594954121262e0 1.769576992564335e0 1.791835531012726e0 1.814374047408358e0
      1.837196063440268e0 1.860305145094894e0 1.883704903213265e0 1.907398994055187e0
      1.931391119870567e0 1.955685029477869e0 1.980284518849899e0 2.005193431706923e0
      2.030415660117245e0 2.055955145105378e0 2.081815877267802e0 2.108001897396537e0
      2.134517297110507e0 2.161366219494856e0 2.188552859748338e0 2.216081465838798e0
      2.243956339166952e0 2.272181835238461e0 2.300762364344516e0 2.329702392250941e0
      2.359006440895968e0 2.388679089096825e0 2.418724973265154e0 2.449148788131490e0
      2.479955287478808e0 2.511149284885299e0 2.542735654476530e0 2.574719331687005e0
      2.607105314031362e0 2.639898661885239e0 2.673104499275946e0 2.706728014683143e0
      2.740774461849510e0 2.775249160601691e0 2.810157497681508e0 2.845504927587644e0
      2.881296973427944e0 2.917539227782381e0 2.954237353576941e0 2.991397084968442e0
      3.029024228240511e0 3.067124662710845e0 3.105704341649836e0 3.144769293210814e0
      3.184325621371945e0 3.224379506889969e0 3.264937208266003e0 3.306005062723389e0
      3.347589487197945e0 3.389696979340604e0 3.432334118532673e0 3.475507566913906e0
      3.519224070423438e0 3.563490459853890e0 3.608313651918679e0 3.653700650332745e0
      3.699658546906944e0 3.746194522656104e0 3.793315848921122e0 3.841029888505100e0
      3.889344096823787e0 3.938266023070542e0 3.987803311395858e0 4.037963702101830e0
      4.088755032851562e0 4.140185239893808e0 4.192262359303066e0 4.244994528235183e0
      4.298389986198844e0 4.352457076342999e0 4.407204246760467e0 4.462640051808026e0
      4.518773153442985e0 4.575612322576683e0 4.633166440444948e0 4.691444499995776e0
      4.750455607294553e0 4.810208982946839e0 4.870713963539157e0 4.931980003097830e0
      4.994016674566171e0 5.056833671300327e0 5.120440808583822e0 5.184848025161277e0
      5.250065384791328e0 5.316103077819084e0 5.382971422768454e0 5.450680867954362e0
      5.519241993115386e0 5.588665511066828e0 5.658962269374592e0 5.730143252050205e0
      5.802219581267008e0 5.875202519098090e0 5.949103469275985e0 6.023933978974489e0
      6.099705740613007e0 6.176430593683432e0 6.254120526600167e0 6.332787678573300e0
      6.412444341505356e0 6.493102961912004e0 6.574776142866759e0 6.657476645970323e0
      6.741217393344573e0 6.826011469651633e0 6.911872124138469e0 6.998812772707002e0
      7.086847000010464e0 7.175988561575994e0 7.266251385953918e0 7.357649576894215e0
      7.450197415550143e0 7.543909362709794e0 7.638800061055586e0 7.734884337452162e0
      7.832177205263225e0 7.930693866697283e0 8.030449715183137e0 8.131460337775076e0
      8.233741517588365e0 8.337309236265469e0 8.442179676473112e0 8.548369224430951e0
      8.655894472471916e0 8.764772221634741e0 8.875019484289282e0 8.986653486794594e0
      9.099691672190707e0 9.214151702924081e0 9.330051463607360e0 9.447409063813978e0
      9.566242840907707e0 9.686571362907998e0 9.808413431391243e0 9.931788084428499e0
      1.005671459956034e1 1.018321249680890e1 1.031130154172798e1 1.044100174849149e1
      1.057233338302056e1 1.070531696615033e1 1.083997327683617e1 1.097632335540062e1
      1.111438850682087e1 1.125419030405769e1 1.139575059142637e1 1.153909148800977e1
      1.168423539111464e1 1.183120497977116e1 1.198002321827651e1 1.213071335978329e1
      1.228329894993264e1 1.243780383053348e1 1.259425214328778e1 1.275266833356265e1
      1.291307715421016e1 1.307550366943486e1 1.323997325871022e1 1.340651162074422e1
      1.357514477749469e1 1.374589907823552e1 1.391880120367355e1 1.409387817011767e1
      1.427115733370011e1 1.445066639465082e1 1.463243340162582e1 1.481648675608972e1
      1.500285521675364e1 1.519156790406874e1 1.538265430477631e1 1.557614427651529e1
      1.577206805248736e1 1.597045624618115e1 1.617133985615557e1 1.637475027088334e1
      1.658071927365566e1 1.678927904754819e1 1.700046218044995e1 1.721430167015514e1
      1.743083092951904e1 1.765008379167901e1 1.787209451534076e1 1.809689779013160e1
      1.832452874202060e1 1.855502293880706e1 1.878841639567822e1 1.902474558083651e1
      1.926404742119795e1 1.950635930816199e1 1.975171910345389e1 2.000016514504093e1
      2.025173625312250e1 2.050647173619609e1 2.076441139719925e1 2.102559553972870e1
      2.129006497433817e1 2.155786102491483e1 2.182902553513644e1 2.210360087500944e1
      2.238162994748925e1 2.266315619518419e1 2.294822360714312e1 2.323687672572919e1
      2.352916065357950e1 2.382512106065234e1 2.412480419136353e1 2.442825687181187e1
      2.473552651709610e1 2.504666113872350e1 2.536170935211160e1 2.568072038418482e1
      2.600374408106585e1 2.633083091586458e1 2.666203199656445e1 2.699739907400806e1
      2.733698454998367e1 2.768084148541269e1 2.802902360864091e1 2.838158532383352e1
      2.873858171947573e1 2.910006857698074e1 2.946610237940541e1 2.983674032027611e1
      3.021204031252523e1 3.059206099754000e1 3.097686175432572e1 3.136650270878341e1
      3.176104474310500e1 3.216054950528610e1 3.256507941875849e1 3.297469769214429e1
      3.338946832913197e1 3.380945613847748e1 3.423472674413056e1 3.466534659548844e1
      3.510138297777913e1 3.554290402257434e1 3.598997871843569e1 3.644267692169403e1
      3.690106936736453e1 3.736522768019955e1 3.783522438587969e1 3.831113292234647e1
      3.879302765127705e1 3.928098386970310e1 3.977507782177664e1 4.027538671068280e1
      4.078198871070340e1 4.129496297943173e1 4.181438967014077e1 4.234034994430789e1
      4.287292598429583e1 4.341220100619447e1 4.395825927282321e1 4.451118610689702e1
      4.507106790435883e1 4.563799214787843e1 4.621204742052234e1 4.679332341959492e1
      4.738191097065349e1 4.797790204170056e1 4.858138975755336e1 4.919246841439539e1
      4.981123349451011e1 5.043778168119998e1 5.107221087389410e1 5.171462020344441e1
      5.236511004761571e1 5.302378204676968e1 5.369073911974610e1 5.436608547994473e1
      5.504992665160816e1 5.574236948631085e1 5.644352217965459e1 5.715349428817407e1
      5.787239674645585e1 5.860034188447147e1 5.933744344512985e1 6.008381660204962e1
      6.083957797755482e1 6.160484566089821e1 6.237973922671203e1 6.316437975369260e1
      6.395888984351870e1 6.476339364000814e1 6.557801684851608e1 6.640288675557599e1
      6.723813224878919e1 6.808388383696343e1 6.894027367050480e1 6.980743556206739e1
      7.068550500746077e1 7.157461920682232e1 7.247491708605478e1 7.338653931853315e1
      7.430962834708627e1 7.524432840625259e1 7.619078554481816e1 7.714914764863661e1
      7.811956446373618e1 7.910218761971882e1 8.009717065345155e1 8.110466903305788e1
      8.212484018220946e1 8.315784350472368e1 8.420384040947159e1 8.526299433559737e1
      8.633547077805700e1 8.742143731347674e1 8.852106362633686e1 8.963452153548623e1
      9.076198502098825e1 9.190363025130647e1 9.305963561083100e1 9.423018172775086e1
      9.541545150227865e1 9.661563013522773e1 9.783090515695148e1 9.906146645664471e1
      1.003075063120137e2
      </PP_R>
    <PP_RAB>
      1.899754094905243e-6 1.923650059727130e-6 1.947846598784546e-6 1.972347492835946e-6
      1.997156570195875e-6 2.022277707333143e-6 2.047714829476539e-6 2.073471911228149e-6
      2.099552977184397e-6 2.125962102564906e-6 2.152703413849244e-6 2.179781089421705e-6
      2.207199360224188e-6 2.234962510417285e-6 2.263074878049704e-6 2.291540855736080e-6
      2.320364891343341e-6 2.349551488685692e-6 2.379105208228349e-6 2.409030667800121e-6
      2.439332543314947e-6 2.470015569502527e-6 2.501084540648127e-6 2.532544311341697e-6
      2.564399797236419e-6 2.596655975816770e-6 2.629317887176280e-6 2.662390634805051e-6
      2.695879386387184e-6 2.729789374608250e-6 2.764125897972900e-6 2.798894321632765e-6
      2.834100078224779e-6 2.869748668720036e-6 2.905845663283331e-6 2.942396702143503e-6
      2.979407496474739e-6 3.016883829288949e-6 3.054831556339381e-6 3.093256607035597e-6
      3.132164985369942e-6 3.171562770855691e-6 3.211456119476980e-6 3.251851264650691e-6
      3.292754518200453e-6 3.334172271342842e-6 3.376110995686055e-6 3.418577244241096e-6
      3.461577652445696e-6 3.505118939201127e-6 3.549207907922028e-6 3.593851447599463e-6
      3.639056533877334e-6 3.684830230142334e-6 3.731179688627646e-6 3.778112151530449e-6
      3.825634952143557e-6 3.873755516001253e-6 3.922481362039536e-6 3.971820103770993e-6
      4.021779450474394e-6 4.072367208399306e-6 4.123591281985827e-6 4.175459675099664e-6
      4.227980492282779e-6 4.281161940019707e-6 4.335012328019853e-6 4.389540070515904e-6
      4.444753687578559e-6 4.500661806447822e-6 4.557273162881010e-6 4.614596602517743e-6
      4.672641082262091e-6 4.731415671682099e-6 4.790929554426951e-6 4.851192029661905e-6
      4.912212513521319e-6 4.974000540579945e-6 5.036565765342717e-6 5.099917963753299e-6
      5.164067034721581e-6 5.229023001670415e-6 5.294796014101788e-6 5.361396349182709e-6
      5.428834413351041e-6 5.497120743941504e-6 5.566266010832189e-6 5.636281018111723e-6
      5.707176705767435e-6 5.778964151394767e-6 5.851654571928152e-6 5.925259325393682e-6
      5.999789912683840e-6 6.075257979354516e-6 6.151675317444680e-6 6.229053867318875e-6
      6.307405719532949e-6 6.386743116723213e-6 6.467078455519393e-6 6.548424288481626e-6
      6.630793326061807e-6 6.714198438589638e-6 6.798652658283643e-6 6.884169181287464e-6
      6.970761369731817e-6 7.058442753822316e-6 7.147227033953612e-6 7.237128082850113e-6
      7.328159947733601e-6 7.420336852518186e-6 7.513673200032772e-6 7.608183574271549e-6
      7.703882742672775e-6 7.800785658426208e-6 7.898907462809600e-6 7.998263487554508e-6
      8.098869257241939e-6 8.200740491728089e-6 8.303893108600606e-6 8.408343225665748e-6
      8.514107163466806e-6 8.621201447834242e-6 8.729642812467874e-6 8.839448201551543e-6
      8.950634772400710e-6 9.063219898143268e-6 9.177221170434178e-6 9.292656402204170e-6
      9.409543630443054e-6 9.527901119018072e-6 9.647747361527594e-6 9.769101084190856e-6
      9.891981248773913e-6 1.001640705555247e-5 1.014239794631201e-5 1.026997360738553e-5
      1.039915397272962e-5 1.052995922703920e-5 1.066240980890136e-5 1.079652641398901e-5
      1.093232999829455e-5 1.106984178140433e-5 1.120908324981421e-5 1.135007616028693e-5
      1.149284254325161e-5 1.163740470624604e-5 1.178378523740231e-5 1.193200700897622e-5
      1.208209318092113e-5 1.223406720450678e-5 1.238795282598353e-5 1.254377409029283e-5
      1.270155534482425e-5 1.286132124321979e-5 1.302309674922617e-5 1.318690714059531e-5
      1.335277801303413e-5 1.352073528420393e-5 1.369080519777003e-5 1.386301432750245e-5
      1.403738958142806e-5 1.421395820603506e-5 1.439274779053028e-5 1.457378627115002e-5