<UPF version="2.0.1">
  <PP_INFO><![CDATA[
Generated using "atomic" code by A. Dal Corso  v.6.6
Author: ADC
Generation date: 21May2021
Pseudopotential type: PAW
Element: Ge
Functional:  SLA  PW   PSX  PSC
    Suggested minimum cutoff for wavefunctions:  20. Ry
    Suggested minimum cutoff for charge density: 116. Ry
    The Pseudo was generated with a Fully-Relativistic Calculation
    L component and cutoff radius for Local Potential:  2   2.2000
    Pseudopotential contains additional information for spin-orbit calculations.
    Valence configuration:
    nl pn  l   occ       Rcut    Rcut US       E pseu
    4S  1  0  2.00      1.500      1.700    -0.855668
    4P  2  1  2.00      1.500      2.000    -0.290261
    4P  2  1  0.00      1.500      2.000    -0.276469
    Generation configuration:
    4S  1  0  2.00      1.500      1.700    -0.855666
    4S  1  0  0.00      1.500      1.700     0.300000
    4P  2  1  2.00      1.500      2.000    -0.290262
    4P  2  1  0.00      1.500      2.000    -0.276467
    4P  2  1  0.00      1.500      2.000     0.300000
    4P  2  1  0.00      1.500      2.000     0.300000
    4D  3  2 -2.00      2.200      2.200     0.500000
    4D  3  2  0.00      2.200      2.200     0.500000
    Pseudization used: troullier-martins
]]>
    <PP_INPUTFILE><![CDATA[
 &input
   title='Ge',
   zed=32.,
   rel=2,
   config='[Ar] 4s2 4p2 3d10 4d-1',
   iswitch=3,
   dft='PBESOL'
 /
 &inputp
   lpaw=.true.,
   pseudotype=3,
   file_pseudopw='Ge.rel-pbesol-n-kjpaw_psl.1.0.0.UPF',
   author='ADC',
   lloc=2,
   which_augfun='PSQ',
   rmatch_augfun_nc=.true.,
   nlcc=.true.,
   new_core_ps=.true.,
   rcore=1.8,
   tm=.true.
 /
5
4S  1  0  2.00  0.00  1.50  1.70  0.0
4S  1  0  0.00  0.30  1.50  1.70  0.0
4P  2  1  2.00  0.00  1.50  2.00  0.0
4P  2  1  0.00  0.30  1.50  2.00  0.0
4D  3  2 -2.00  0.50  2.20  2.20  0.0
]]></PP_INPUTFILE>
  </PP_INFO>
  <!--
 END OF HUMAN READABLE SECTION 
-->
  <PP_HEADER generated="Generated using &quot;atomic&quot; code by A. Dal Corso  v.6.6" author="ADC" date="21May2021" comment="" element="Ge" pseudo_type="PAW" relativistic="full" is_ultrasoft="true" is_paw="true" is_coulomb="false" has_so="true" has_wfc="true" has_gipaw="false" paw_as_gipaw="false" core_correction="true" functional=" SLA  PW   PSX  PSC" z_valence="4.000000000000e0" total_psenergy="-1.608164280483e2" wfc_cutoff="1.968258849105e1" rho_cutoff="1.157896690818e2" l_max="1" l_max_rho="2" l_local="2" mesh_size="1207" number_of_wfc="3" number_of_proj="6"/>
  <PP_MESH dx="1.250000000000e-2" mesh="1207" xmin="-7.000000000000e0" rmax="1.000000000000e2" zmesh="3.200000000000e1">
    <PP_R>
      2.849631142357863e-5 2.885475089590694e-5 2.921769898176819e-5 2.958521239253918e-5
      2.995734855293812e-5 3.033416560999715e-5 3.071572244214808e-5 3.110207866842223e-5
      3.149329465776596e-5 3.188943153847358e-5 3.229055120773866e-5 3.269671634132558e-5
      3.310799040336282e-5 3.352443765625928e-5 3.394612317074555e-5 3.437311283604119e-5
      3.480547337015010e-5 3.524327233028539e-5 3.568657812342523e-5 3.613546001700180e-5
      3.658998814972420e-5 3.705023354253790e-5 3.751626810972191e-5 3.798816467012545e-5
      3.846599695854628e-5 3.894983963725154e-5 3.943976830764420e-5 3.993585952207576e-5
      4.043819079580775e-5 4.094684061912375e-5 4.146188846959348e-5 4.198341482449147e-5
      4.251150117337168e-5 4.304623003080054e-5 4.358768494924997e-5 4.413595053215255e-5
      4.469111244712108e-5 4.525325743933424e-5 4.582247334509072e-5 4.639884910553397e-5
      4.698247478054913e-5 4.757344156283537e-5 4.817184179215470e-5 4.877776896976038e-5
      4.939131777300679e-5 5.001258407014264e-5 5.064166493529083e-5 5.127865866361645e-5
      5.192366478668543e-5 5.257678408801691e-5 5.323811861883043e-5 5.390777171399195e-5
      5.458584800816000e-5 5.527245345213503e-5 5.596769532941469e-5 5.667168227295672e-5
      5.738452428215336e-5 5.810633274001878e-5 5.883722043059304e-5 5.957730155656488e-5
      6.032669175711591e-5 6.108550812598958e-5 6.185386922978740e-5 6.263189512649497e-5
      6.341970738424169e-5 6.421742910029558e-5 6.502518492029780e-5 6.584310105773856e-5
      6.667130531367837e-5 6.750992709671733e-5 6.835909744321516e-5 6.921894903776615e-5
      7.008961623393136e-5 7.097123507523147e-5 7.186394331640424e-5 7.276788044492855e-5
      7.368318770281977e-5 7.461000810869916e-5 7.554848648014073e-5 7.649876945629948e-5
      7.746100552082370e-5 7.843534502505621e-5 7.942194021152683e-5 8.042094523774063e-5
      8.143251620026557e-5 8.245681115912255e-5 8.349399016248283e-5 8.454421527167584e-5
      8.560765058651151e-5 8.668446227092153e-5 8.777481857892228e-5 8.887888988090522e-5
      8.999684869025760e-5 9.112886969031774e-5 9.227512976167020e-5 9.343580800978312e-5
      9.461108579299422e-5 9.580114675084822e-5 9.700617683279090e-5 9.822636432722437e-5
      9.946189989092707e-5 1.007129765788446e-4 1.019797898742546e-4 1.032625377193119e-4
      1.045614205459773e-4 1.058766413073347e-4 1.072084055093042e-4 1.085569212427517e-4
      1.099223992160040e-4 1.113050527877728e-4 1.127050980004916e-4 1.141227536140732e-4
      1.155582411400916e-4 1.170117848763931e-4 1.184836119421440e-4 1.199739523133176e-4
      1.214830388586291e-4 1.230111073759213e-4 1.245583966290091e-4 1.261251483849862e-4
      1.277116074520021e-4 1.293180217175137e-4 1.309446421870181e-4 1.325917230232731e-4
      1.342595215860106e-4 1.359482984721490e-4 1.376583175565127e-4 1.393898460330626e-4
      1.411431544566458e-4 1.429185167852710e-4 1.447162104229139e-4 1.465365162628629e-4
      1.483797187316087e-4 1.502461058332871e-4 1.521359691946801e-4 1.540496041107829e-4
      1.559873095909443e-4 1.579493884055879e-4 1.599361471335204e-4 1.619478962098352e-4
      1.639849499744183e-4 1.660476267210649e-4 1.681362487472131e-4 1.702511424043039e-4
      1.723926381487741e-4 1.745610705936906e-4 1.767567785610346e-4 1.789801051346433e-4
      1.812313977138169e-4 1.835110080676016e-4 1.858192923897530e-4 1.881566113543925e-4
      1.905233301723637e-4 1.929198186482969e-4 1.953464512383926e-4 1.978036071089296e-4
      2.002916701955120e-4 2.028110292630589e-4 2.053620779665504e-4 2.079452149125367e-4
      2.105608437214209e-4 2.132093730905258e-4 2.158912168579541e-4 2.186067940672503e-4
      2.213565290328789e-4 2.241408514065219e-4 2.269601962442154e-4 2.298150040743261e-4
      2.327057209663856e-4 2.356327986007899e-4 2.385966943393738e-4 2.415978712968772e-4
      2.446367984133055e-4 2.477139505272030e-4 2.508298084498488e-4 2.539848590403816e-4
      2.571795952818760e-4 2.604145163583691e-4 2.636901277328603e-4 2.670069412262920e-4
      2.703654750975198e-4 2.737662541242946e-4 2.772098096852581e-4 2.806966798429723e-4
      2.842274094279945e-4 2.878025501240043e-4 2.914226605540102e-4 2.950883063676316e-4
      2.988000603294845e-4 3.025585024086779e-4 3.063642198694321e-4 3.102178073628441e-4
      3.141198670197995e-4 3.180710085450584e-4 3.220718493125234e-4 3.261230144617033e-4
      3.302251369953955e-4 3.343788578785914e-4 3.385848261386298e-4 3.428436989666090e-4
      3.471561418200721e-4 3.515228285269895e-4 3.559444413910430e-4 3.604216712982382e-4
      3.649552178248578e-4 3.695457893467693e-4 3.741941031501133e-4 3.789008855433782e-4
      3.836668719708886e-4 3.884928071277217e-4 3.933794450760624e-4 3.983275493630334e-4
      4.033378931399961e-4 4.084112592833588e-4 4.135484405169044e-4 4.187502395356509e-4
      4.240174691312792e-4 4.293509523191296e-4 4.347515224668006e-4 4.402200234243667e-4
      4.457573096562268e-4 4.513642463746212e-4 4.570417096748194e-4 4.627905866720125e-4
      4.686117756399288e-4 4.745061861511858e-4 4.804747392194198e-4 4.865183674431902e-4
      4.926380151517028e-4 4.988346385523632e-4 5.051092058801836e-4 5.114626975490758e-4
      5.178961063050393e-4 5.244104373812799e-4 5.310067086552839e-4 5.376859508078557e-4
      5.444492074841723e-4 5.512975354568489e-4 5.582320047910637e-4 5.652536990117598e-4
      5.723637152729431e-4 5.795631645291213e-4 5.868531717088877e-4 5.942348758906954e-4
      6.017094304808416e-4 6.092780033936873e-4 6.169417772341495e-4 6.247019494824823e-4
      6.325597326813872e-4 6.405163546254768e-4 6.485730585531169e-4 6.567311033406884e-4
      6.649917636992868e-4 6.733563303738991e-4 6.818261103450867e-4 6.904024270332014e-4
      6.990866205051750e-4 7.078800476839053e-4 7.167840825602791e-4 7.258001164078618e-4
      7.349295580002845e-4 7.441738338313712e-4 7.535343883380273e-4 7.630126841259386e-4
      7.726102021981063e-4 7.823284421862546e-4 7.921689225851544e-4 8.021331809898886e-4
      8.122227743361046e-4 8.224392791432910e-4 8.327842917611090e-4 8.432594286188277e-4
      8.538663264778929e-4 8.646066426876743e-4 8.754820554444320e-4 8.864942640535345e-4
      8.976449891949823e-4 9.089359731922650e-4 9.203689802846029e-4 9.319457969026159e-4
      9.436682319474532e-4 9.555381170734403e-4 9.675573069742780e-4 9.797276796728402e-4
      9.920511368146235e-4 1.004529603964877e-3 1.017165030909482e-3 1.029959391959605e-3
      1.042914686260190e-3 1.056032938102330e-3 1.069316197239564e-3 1.082766539208157e-3
      1.096386065651407e-3 1.110176904648030e-3 1.124141211044677e-3 1.138281166792632e-3
      1.152598981288750e-3 1.167096891720676e-3 1.181777163416409e-3 1.196642090198270e-3
      1.211693994741313e-3 1.226935228936244e-3 1.242368174256916e-3 1.257995242132433e-3
      1.273818874323944e-3 1.289841543306173e-3 1.306065752653747e-3 1.322494037432385e-3
      1.339128964595006e-3 1.355973133382824e-3 1.373029175731482e-3 1.390299756682297e-3
      1.407787574798682e-3 1.425495362587794e-3 1.443425886927504e-3 1.461581949498718e-3
      1.479966387223154e-3 1.498582072706609e-3 1.517431914687811e-3 1.536518858492925e-3
      1.555845886495748e-3 1.575416018583731e-3 1.595232312629825e-3 1.615297864970294e-3
      1.635615810888512e-3 1.656189325104869e-3 1.677021622272817e-3 1.698115957481172e-3
      1.719475626762727e-3 1.741103967609262e-3 1.763004359493042e-3 1.785180224394853e-3
      1.807635027338703e-3 1.830372276933236e-3 1.853395525919960e-3 1.876708371728373e-3
      1.900314457038062e-3 1.924217470347882e-3 1.948421146552295e-3 1.972929267524949e-3
      1.997745662709612e-3 2.022874209718518e-3 2.048318834938261e-3 2.074083514143302e-3
      2.100172273117180e-3 2.126589188281569e-3 2.153338387333206e-3 2.180424049888865e-3
      2.207850408138426e-3 2.235621747506163e-3 2.263742407320358e-3 2.292216781491316e-3
      2.321049319197935e-3 2.350244525582888e-3 2.379806962456573e-3 2.409741249009898e-3
      2.440052062536036e-3 2.470744139161271e-3 2.501822274585018e-3 2.533291324829163e-3
      2.565156206996837e-3 2.597421900040705e-3 2.630093445540949e-3 2.663175948493027e-3
      2.696674578105328e-3 2.730594568606887e-3 2.764941220065229e-3 2.799719899214522e-3
      2.834936040294143e-3 2.870595145897778e-3 2.906702787833234e-3 2.943264607993021e-3
      2.980286319235926e-3 3.017773706279652e-3 3.055732626604689e-3 3.094169011369572e-3
      3.133088866337618e-3 3.172498272815347e-3 3.212403388602701e-3 3.252810448955207e-3
      3.293725767558260e-3 3.335155737513631e-3 3.377106832338416e-3 3.419585606976531e-3
      3.462598698822936e-3 3.506152828760742e-3 3.550254802211368e-3 3.594911510197889e-3
      3.640129930421781e-3 3.685917128353205e-3 3.732280258334988e-3 3.779226564700522e-3
      3.826763382905686e-3 3.874898140675040e-3 3.923638359162416e-3 3.972991654126112e-3
      4.022965737118883e-3 4.073568416692866e-3 4.124807599619696e-3 4.176691292125953e-3
      4.229227601144147e-3 4.282424735579452e-3 4.336291007592353e-3 4.390834833897443e-3
      4.446064737078553e-3 4.501989346920415e-3 4.558617401757107e-3 4.615957749837402e-3
      4.674019350707347e-3 4.732811276610209e-3 4.792342713904015e-3 4.852622964496970e-3
      4.913661447300864e-3 4.975467699702824e-3 5.038051379055528e-3 5.101422264186200e-3
      5.165590256924580e-3 5.230565383650080e-3 5.296357796858443e-3 5.362977776748089e-3
      5.430435732826410e-3 5.498742205536297e-3 5.567907867903078e-3 5.637943527202215e-3
      5.708860126647962e-3 5.780668747103258e-3 5.853380608811158e-3 5.927007073147978e-3
      6.001559644398569e-3 6.077049971553866e-3 6.153489850131065e-3 6.230891224016723e-3
      6.309266187332984e-3 6.388626986327316e-3 6.468986021286025e-3 6.550355848471806e-3
      6.632749182085722e-3 6.716178896253771e-3 6.800658027038531e-3 6.886199774476063e-3
      6.972817504638432e-3 7.060524751722214e-3 7.149335220163202e-3 7.239262786777778e-3
      7.330321502931182e-3 7.422525596733066e-3 7.515889475260693e-3 7.610427726810025e-3
      7.706155123175207e-3 7.803086621956679e-3 7.901237368898327e-3 8.000622700254066e-3
      8.101258145184113e-3 8.203159428181481e-3 8.306342471528961e-3 8.410823397786995e-3
      8.516618532312894e-3 8.623744405811664e-3 8.732217756918983e-3 8.842055534816657e-3
      8.953274901880942e-3 9.065893236364230e-3 9.179928135110405e-3 9.295397416304397e-3
      9.412319122256321e-3 9.530711522220603e-3 9.650593115250622e-3 9.771982633089184e-3
      9.894899043095418e-3 1.001936155120847e-2 1.014538960494843e-2 1.027300289645513e-2
      1.040222136556499e-2 1.053306520292670e-2 1.066555485315606e-2 1.079971101803045e-2
      1.093555465972361e-2 1.107310700408090e-2 1.121238954393599e-2 1.135342404246911e-2
      1.149623253660757e-2 1.164083734046916e-2 1.178726104884866e-2 1.193552654074841e-2
      1.208565698295317e-2 1.223767583364997e-2 1.239160684609353e-2 1.254747407231771e-2
      1.270530186689373e-2 1.286511489073559e-2 1.302693811495339e-2 1.319079682475517e-2
      1.335671662339771e-2 1.352472343618711e-2 1.369484351452968e-2 1.386710344003375e-2
      1.404153012866318e-2 1.421815083494293e-2 1.439699315621769e-2 1.457808503696402e-2
      1.476145477315671e-2 1.494713101669013e-2 1.513514277985508e-2 1.532551943987207e-2
      1.551829074348156e-2 1.571348681159190e-2 1.591113814398591e-2 1.611127562408639e-2
      1.631393052378176e-2 1.651913450831243e-2 1.672691964121845e-2 1.693731838934960e-2
      1.715036362793833e-2 1.736608864573661e-2 1.758452715021738e-2 1.780571327284135e-2
      1.802968157439021e-2 1.825646705036675e-2 1.848610513646298e-2 1.871863171409706e-2
      1.895408311601979e-2 1.919249613199181e-2 1.943390801453189e-2 1.967835648473782e-2
      1.992587973818043e-2 2.017651645087163e-2 2.043030578530773e-2 2.068728739658857e-2
      2.094750143861374e-2 2.121098857035672e-2 2.147778996221788e-2 2.174794730245757e-2
      2.202150280370980e-2 2.229849920957822e-2 2.257897980131477e-2 2.286298840458256e-2
      2.315056939630369e-2 2.344176771159319e-2 2.373662885078028e-2 2.403519888651784e-2
      2.433752447098140e-2 2.464365284315865e-2 2.495363183623054e-2 2.526750988504540e-2
      2.558533603368695e-2 2.590715994313752e-2 2.623303189903774e-2 2.656300281954370e-2
      2.689712426328307e-2 2.723544843741120e-2 2.757802820576861e-2 2.792491709714112e-2
      2.827616931362375e-2 2.863183973908994e-2 2.899198394776730e-2 2.935665821292112e-2
      2.972591951564731e-2 3.009982555377570e-2 3.047843475088541e-2 3.086180626543382e-2
      3.125000000000000e-2 3.164307661064483e-2 3.204109751638842e-2 3.244412490880705e-2
      3.285222176175078e-2 3.326545184118310e-2 3.368387971514474e-2 3.410757076384225e-2
      3.453659118986401e-2 3.497100802852442e-2 3.541088915833832e-2 3.585630331162726e-2
      3.630732008525886e-2 3.676400995152160e-2 3.722644426913622e-2 3.769469529440564e-2
      3.816883619250532e-2 3.864894104891516e-2 3.913508488099579e-2 3.962734364971001e-2
      4.012579427149192e-2 4.063051463026535e-2 4.114158358961318e-2 4.165908100510011e-2
      4.218308773675012e-2 4.271368566168113e-2 4.325095768689849e-2 4.379498776224918e-2
      4.434586089353932e-2 4.490366315581642e-2 4.546848170681878e-2 4.604040480059425e-2
      4.661952180128971e-2 4.720592319711479e-2 4.779970061448062e-2 4.840094683231666e-2
      4.900975579656778e-2 4.962622263487325e-2 5.025044367143074e-2 5.088251644204722e-2
      5.152253970937901e-2 5.217061347836385e-2 5.282683901184662e-2 5.349131884640204e-2
      5.416415680835613e-2 5.484545803000933e-2 5.553532896606371e-2 5.623387741025654e-2
      5.694121251220343e-2 5.765744479445316e-2 5.838268616975695e-2 5.911704995855532e-2
      5.986065090668427e-2 6.061360520330484e-2 6.137603049905777e-2 6.214804592444663e-2
      6.292977210845240e-2 6.372133119738175e-2 6.452284687395274e-2 6.533444437662053e-2
      6.615625051914609e-2 6.698839371041123e-2 6.783100397448259e-2 6.868421297092821e-2
      6.954815401538966e-2 7.042296210041277e-2 7.130877391654076e-2 7.220572787367202e-2
      7.311396412268724e-2 7.403362457734818e-2 7.496485293647181e-2 7.590779470638402e-2
      7.686259722365472e-2 7.782940967811975e-2 7.880838313619218e-2 7.979967056446647e-2
      8.080342685362021e-2 8.181980884261568e-2 8.284897534320649e-2 8.389108716475226e-2
      8.494630713934516e-2 8.601480014725336e-2 8.709673314268287e-2 8.819227517986562e-2
      8.930159743947392e-2 9.042487325536753e-2 9.156227814167828e-2 9.271398982023339e-2
      9.388018824832599e-2 9.506105564683331e-2 9.625677652868847e-2 9.746753772771235e-2
      9.869352842780527e-2 9.993494019250859e-2 1.011919669949364e-1 1.024648052480835e-1
      1.037536538355172e-1 1.050587141424510e-1 1.063801900872130e-1 1.077182881531087e-1
      1.090732174206825e-1 1.104451896003898e-1 1.118344190656744e-1 1.132411228864669e-1
      1.146655208631015e-1 1.161078355606595e-1 1.175682923437473e-1 1.190471194117082e-1
      1.205445478342804e-1 1.220608115877017e-1 1.235961475912680e-1 1.251507957443540e-1
      1.267249989638961e-1 1.283190032223503e-1 1.299330575861253e-1 1.315674142544987e-1
      1.332223285990257e-1 1.348980592034389e-1 1.365948679040549e-1 1.383130198306856e-1
      1.400527834480645e-1 1.418144305977971e-1 1.435982365408341e-1 1.454044800004834e-1
      1.472334432059608e-1 1.490854119364876e-1 1.509606755659464e-1 1.528595271080939e-1
      1.547822632623473e-1 1.567291844601426e-1 1.587005949118776e-1 1.606968026544466e-1
      1.627181195993703e-1 1.647648615815340e-1 1.668373484085369e-1 1.689359039106615e-1
      1.710608559914752e-1 1.732125366790632e-1 1.753912821779111e-1 1.775974329214359e-1
      1.798313336251791e-1 1.820933333406712e-1 1.843837855099693e-1 1.867030480208851e-1
      1.890514832629047e-1 1.914294581838121e-1 1.938373443470272e-1 1.962755179896615e-1
      1.987443600813071e-1 2.012442563835645e-1 2.037755975103160e-1 2.063387789887636e-1
      2.089342013212272e-1 2.115622700477273e-1 2.142233958093494e-1 2.169179944124074e-1
      2.196464868934156e-1 2.224092995848749e-1 2.252068641818895e-1 2.280396178096199e-1
      2.309080030915828e-1 2.338124682188152e-1 2.367534670199015e-1 2.397314590318884e-1
      2.427469095720868e-1 2.458002898107779e-1 2.488920768448369e-1 2.520227537722773e-1
      2.551928097677389e-1 2.584027401589211e-1 2.616530465039770e-1 2.649442366698869e-1
      2.682768249118093e-1 2.716513319534375e-1 2.750682850683629e-1 2.785282181624606e-1
      2.820316718573166e-1 2.855791935746978e-1 2.891713376220903e-1 2.928086652793105e-1
      2.964917448862039e-1 3.002211519314535e-1 3.039974691424965e-1 3.078212865765806e-1
      3.116932017129602e-1 3.156138195462517e-1 3.195837526809691e-1 3.236036214272405e-1
      3.276740538977366e-1 3.317956861058128e-1 3.359691620648861e-1 3.401951338890671e-1
      3.444742618950501e-1 3.488072147052926e-1 3.531946693524872e-1 3.576373113853475e-1
      3.621358349757313e-1 3.666909430271004e-1 3.713033472843561e-1 3.759737684450481e-1
      3.807029362719835e-1 3.854915897072583e-1 3.903404769877129e-1 3.952503557618507e-1
      4.002219932082200e-1 4.052561661552854e-1 4.103536612028134e-1 4.155152748447747e-1
      4.207418135938034e-1 4.260340941072114e-1 4.313929433145967e-1 4.368191985470514e-1
      4.423137076679940e-1 4.478773292056546e-1 4.535109324872164e-1 4.592153977746544e-1
      4.649916164022765e-1 4.708404909159935e-1 4.767629352143493e-1 4.827598746913133e-1
      4.888322463808803e-1 4.949809991034822e-1 5.012070936142399e-1 5.075115027530893e-1
      5.138952115967832e-1 5.203592176128170e-1 5.269045308152828e-1 5.335321739226831e-1
      5.402431825177395e-1 5.470386052091966e-1 5.539195037956763e-1 5.608869534315830e-1
      5.679420427950959e-1 5.750858742582835e-1 5.823195640593442e-1 5.896442424770276e-1
      5.970610540072396e-1 6.045711575418693e-1 6.121757265498756e-1 6.198759492606354e-1
      6.276730288496147e-1 6.355681836263633e-1 6.435626472248761e-1 6.516576687963573e-1
      6.598545132043946e-1 6.681544612226045e-1 6.765588097347523e-1 6.850688719373897e-1
      6.936859775450520e-1 7.024114729980195e-1 7.112467216727103e-1 7.201931040947063e-1
      7.292520181544600e-1 7.384248793257266e-1 7.477131208867235e-1 7.571181941440931e-1
      7.666415686596679e-1 7.762847324800890e-1 7.860491923693250e-1 7.959364740440967e-1
      8.059481224122832e-1 8.160857018143123e-1 8.263507962675876e-1 8.367450097140049e-1
      8.472699662705596e-1 8.579273104831280e-1 8.687187075834279e-1 8.796458437492079e-1
      8.907104263677287e-1 9.019141843025324e-1 9.132588681635919e-1 9.247462505808432e-1
      9.363781264811571e-1 9.481563133688113e-1 9.600826516094667e-1 9.721590047177394e-1
      9.843872596483740e-1 9.967693270910781e-1 1.009307141769085e0 1.022002662741443e0
      1.034857873709135e0 1.047874783325030e0 1.061055425507736e0 1.074401859759413e0
      1.087916171487564e0 1.101600472330892e0 1.115456900489247e0 1.129487621057717e0
      1.143694826364939e0 1.158080736315644e0 1.172647598737531e0 1.187397689732494e0
      1.202333314032254e0 1.217456805358501e0 1.232770526787517e0 1.248276871119435e0
      1.263978261252107e0 1.279877150559681e0 1.295976023275963e0 1.312277394882563e0
      1.328783812501962e0 1.345497855295499e0 1.362422134866360e0 1.379559295667665e0
      1.396912015415652e0 1.414483005508086e0 1.432275011447922e0 1.450290813272280e0
      1.468533225986855e0 1.487005100005741e0 1.505709321596838e0 1.524648813332827e0
      1.543826534547818e0 1.563245481799775e0 1.582908689338708e0 1.602819229580803e0
      1.622980213588484e0 1.643394791556514e0 1.664066153304240e0 1.684997528773986e0
      1.706192188535757e0 1.727653444298265e0 1.749384649426380e0 1.771389199465121e0
      1.793670532670195e0 1.816232130545250e0 1.839077518385858e0 1.862210265830343e0
      1.885633987417564e0 1.909352343151668e0 1.933369039073996e0 1.957687827842154e0
      1.982312509316355e0 2.007246931153186e0 2.032494989406782e0 2.058060629137616e0
      2.083947845028913e0 2.110160682010817e0 2.136703235892444e0 2.163579654001833e0
      2.190794135833996e0 2.218350933707092e0 2.246254353426846e0 2.274508754959367e0
      2.303118553112370e0 2.332088218225028e0 2.361422276866459e0 2.391125312542997e0
      2.421201966414405e0 2.451656938019036e0 2.482494986008167e0 2.513720928889541e0
      2.545339645780254e0 2.577356077169160e0 2.609775225688790e0 2.642602156897063e0
      2.675842000068771e0 2.709499948997028e0 2.743581262804841e0 2.778091266766823e0
      2.813035353141307e0 2.848418982012889e0 2.884247682145559e0 2.920527051846617e0
      2.957262759841380e0 2.994460546158965e0 3.032126223029170e0 3.070265675790627e0
      3.108884863810436e0 3.147989821415285e0 3.187586658834365e0 3.227681563154089e0
      3.268280799284820e0 3.309390710939813e0 3.351017721626393e0 3.393168335649675e0
      3.435849139128863e0 3.479066801026323e0 3.522828074189666e0 3.567139796406845e0
      3.612008891474614e0 3.657442370280372e0 3.703447331897604e0 3.750030964695174e0
      3.797200547460468e0 3.844963450536767e0 3.893327136974858e0 3.942299163699131e0
      3.991887182688407e0 4.042098942171530e0 4.092942287838081e0 4.144425164064271e0
      4.196555615154235e0 4.249341786597035e0 4.302791926339335e0 4.356914386074224e0
      4.411717622546156e0 4.467210198872313e0 4.523400785880661e0 4.580298163464724e0
      4.637911221955519e0 4.696248963510656e0 4.755320503520926e0 4.815135072034654e0
      4.875702015199847e0 4.937030796724608e0 4.999130999355834e0 5.062012326376511e0
      5.125684603121937e0 5.190157778514878e0 5.255441926620170e0 5.321547248218786e0
      5.388484072401698e0 5.456262858183889e0 5.524894196138514e0 5.594388810051771e0
      5.664757558598480e0 5.736011437038750e0 5.808161578936073e0 5.881219257896890e0
      5.955195889332187e0 6.030103032241144e0 6.105952391017217e0 6.182755817277054e0
      6.260525311712245e0 6.339273025964528e0 6.419011264524480e0 6.499752486654082e0
      6.581509308333586e0 6.664294504232689e0 6.748121009706691e0 6.833001922817631e0
      6.918950506380849e0 7.005980190037415e0 7.094104572352441e0 7.183337422939964e0
      7.273692684614447e0 7.365184475569332e0 7.457827091583121e0 7.551635008253024e0
      7.646622883256887e0 7.742805558643448e0 7.840198063151393e0 7.938815614557727e0
      8.038673622055468e0 8.139787688661462e0 8.242173613654352e0 8.345847395043192e0
      8.450825232067281e0 8.557123527727205e0 8.664758891347937e0 8.773748141174048e0
      8.884108306997529e0 8.995856632818855e0 9.109010579541255e0 9.223587827699134e0
      9.339606280220643e0 9.457084065224995e0 9.576039538855143e0 9.696491288145825e0
      9.818458133927944e0 9.941959133769315e0 1.006701358495239e1 1.019364102748963e1
      1.032186124717653e1 1.045169427868328e1 1.058316040868524e1 1.071628017903264e1
      1.085107438996047e1 1.098756410333840e1 1.112577064596185e1 1.126571561288430e1
      1.140742087079153e1 1.155090856141841e1 1.169620110500851e1 1.184332120381736e1
      1.199229184565976e1 1.214313630750153e1 1.229587815909676e1 1.245054126667050e1
      1.260714979664797e1 1.276572821943064e1 1.292630131321965e1 1.308889416788763e1
      1.325353218889889e1 1.342024110127919e1 1.358904695363527e1 1.375997612222497e1
      1.393305531507868e1 1.410831157617236e1 1.428577228965341e1 1.446546518411936e1
      1.464741833695053e1 1.483166017869728e1 1.501821949752217e1 1.520712544369835e1
      1.539840753416428e1 1.559209565713569e1 1.578822007677592e1 1.598681143792451e1
      1.618790077088569e1 1.639151949627689e1 1.659769942993816e1 1.680647278790367e1
      1.701787219143529e1 1.723193067211996e1 1.744868167703081e1 1.766815907395329e1
      1.789039715667725e1 1.811543065035520e1 1.834329471692840e1 1.857402496062088e1
      1.880765743350257e1 1.904422864112275e1 1.928377554821386e1 1.952633558446753e1
      1.977194665038294e1 2.002064712318878e1 2.027247586283997e1 2.052747221808937e1
      2.078567603263631e1 2.104712765135217e1 2.131186792658423e1 2.157993822453920e1
      2.185138043174643e1 2.212623696160311e1 2.240455076100125e1 2.268636531703817e1
      2.297172466381169e1 2.326067338930022e1 2.355325664233004e1 2.384952013962974e1
      2.414951017297344e1 2.445327361641427e1 2.476085793360819e1 2.507231118523059e1
      2.538768203648575e1 2.570701976471070e1 2.603037426707528e1 2.635779606837824e1
      2.668933632894224e1 2.702504685260756e1 2.736498009482644e1 2.770918917085966e1
      2.805772786407557e1 2.841065063435414e1 2.876801262659628e1 2.912986967934026e1
      2.949627833348687e1 2.986729584113368e1 3.024298017452114e1 3.062339003509076e1
      3.100858486265707e1 3.139862484469568e1 3.179357092574723e1 3.219348481694043e1
      3.259842900563450e1 3.300846676518266e1 3.342366216481919e1 3.384408007966988e1
      3.426978620088933e1 3.470084704592516e1 3.513732996891127e1 3.557930317119254e1
      3.602683571198090e1 3.647999751914642e1 3.693885940014350e1 3.740349305307449e1
      3.787397107789308e1 3.835036698774772e1 3.883275522046862e1 3.932121115019864e1
      3.981581109917044e1 4.031663234963245e1 4.082375315592384e1 4.133725275670242e1
      4.185721138732560e1 4.238371029238714e1 4.291683173841227e1 4.345665902671141e1
      4.400327650639674e1 4.455676958756164e1 4.511722475462595e1 4.568472957984998e1
      4.625937273701708e1 4.684124401528975e1 4.743043433323916e1 4.802703575305102e1
      4.863114149491113e1 4.924284595157057e1 4.986224470309529e1 5.048943453180048e1
      5.112451343737273e1 5.176758065218329e1 5.241873665679261e1 5.307808319565132e1
      5.374572329299763e1 5.442176126895491e1 5.510630275583249e1 5.579945471463022e1
      5.650132545175198e1 5.721202463592851e1 5.793166331535308e1 5.866035393503366e1
      5.939821035436189e1 6.014534786490461e1 6.090188320841797e1 6.166793459508838e1
      6.244362172200378e1 6.322906579185567e1 6.402438953187806e1 6.482971721302355e1
      6.564517466938056e1 6.647088931783590e1 6.730699017798313e1 6.815360789228279e1
      6.901087474647534e1 6.987892469025062e1 7.075789335817865e1 7.164791809090183e1
      7.254913795659554e1 7.346169377269743e1 7.438572812791019e1 7.532138540448199e1
      7.626881180076565e1 7.722815535406330e1 7.819956596375704e1 7.918319541473075e1
      8.017919740108761e1 8.118772755016408e1 8.220894344684799e1 8.324300465820100e1
      8.429007275839094e1 8.535031135393899e1 8.642388610928251e1 8.751096477266136e1
      8.861171720232853e1 8.972631539309036e1 9.085493350318213e1 9.199774788147939e1
      9.315493709505402e1 9.432668195707510e1 9.551316555506093e1 9.671457327948795e1
      9.793109285275705e1 9.916291435852676e1 1.004102302714137e2
      </PP_R>
    <PP_RAB>
      3.562038927947329e-7 3.606843861988369e-7 3.652212372721024e-7 3.698151549067398e-7
      3.744668569117266e-7 3.791770701249644e-7 3.839465305268510e-7 3.887759833552779e-7
      3.936661832220745e-7 3.986178942309198e-7 4.036318900967332e-7 4.087089542665698e-7
      4.138498800420352e-7 4.190554707032409e-7 4.243265396343194e-7 4.296639104505148e-7
      4.350684171268763e-7 4.405409041285674e-7 4.460822265428154e-7 4.516932502125226e-7
      4.573748518715525e-7 4.631279192817238e-7 4.689533513715238e-7 4.748520583765682e-7